[Molden Format]
[Atoms] Angs
 O     1  8     3.091999     2.456999    -4.693998
 H     2  1     2.766999     2.488999    -5.593998
 H     3  1     3.701999     1.693999    -4.797998
 O     4  8     1.039000     3.464999    -6.491998
 H     5  1     1.399999     3.464999    -7.360997
 H     6  1     0.435000     4.251998    -6.496998
 O     7  8     4.523998     4.555998    -6.607998
 H     8  1     5.495998     4.595998    -6.435998
 H     9  1     4.073999     4.621998    -5.746998
 O    10  8     4.915998     0.165000    -4.626998
 H    11  1     5.243998    -0.138000    -5.506998
 H    12  1     4.540998    -0.631000    -4.200998
 O    13  8     3.359999     3.870999    -2.602999
 H    14  1     3.247999     3.239999    -3.342999
 H    15  1     4.272998     4.206998    -2.738999
[GTO]
  1 0
 s    8 1.00
  0.1533000000D+05  0.5201983070D-03
  0.2299000000D+04  0.4023344781D-02
  0.5224000000D+03  0.2072908333D-01
  0.1473000000D+03  0.8108232708D-01
  0.4755000000D+02  0.2362263521D+00
  0.1676000000D+02  0.4435182094D+00
  0.6207000000D+01  0.3586705887D+00
  0.6882000000D+00 -0.8349797237D-02
 s    8 1.00
  0.1533000000D+05 -0.1972360120D-03
  0.2299000000D+04 -0.1535010700D-02
  0.5224000000D+03 -0.7951183914D-02
  0.1473000000D+03 -0.3211345289D-01
  0.4755000000D+02 -0.1002696430D+00
  0.1676000000D+02 -0.2340471118D+00
  0.6207000000D+01 -0.3014109278D+00
  0.6882000000D+00  0.1034919650D+01
 s    1 1.00
  0.1752000000D+01  0.1000000000D+01
 s    1 1.00
  0.2384000000D+00  0.1000000000D+01
 p    3 1.00
  0.3446000000D+02  0.4116348957D-01
  0.7749000000D+01  0.2577628359D+00
  0.2280000000D+01  0.8024192744D+00
 p    1 1.00
  0.7156000000D+00  0.1000000000D+01
 p    1 1.00
  0.2140000000D+00  0.1000000000D+01
 d    1 1.00
  0.2314000000D+01  0.1000000000D+01
 d    1 1.00
  0.6450000000D+00  0.1000000000D+01
 f    1 1.00
  0.1428000000D+01  0.1000000000D+01
  
  2 0
 s    3 1.00
  0.3387000000D+02  0.2549486324D-01
  0.5095000000D+01  0.1903627659D+00
  0.1159000000D+01  0.8521620222D+00
 s    1 1.00
  0.3258000000D+00  0.1000000000D+01
 s    1 1.00
  0.1027000000D+00  0.1000000000D+01
 p    1 1.00
  0.1407000000D+01  0.1000000000D+01
 p    1 1.00
  0.3880000000D+00  0.1000000000D+01
 d    1 1.00
  0.1057000000D+01  0.1000000000D+01
  
  3 0
 s    3 1.00
  0.3387000000D+02  0.2549486324D-01
  0.5095000000D+01  0.1903627659D+00
  0.1159000000D+01  0.8521620222D+00
 s    1 1.00
  0.3258000000D+00  0.1000000000D+01
 s    1 1.00
  0.1027000000D+00  0.1000000000D+01
 p    1 1.00
  0.1407000000D+01  0.1000000000D+01
 p    1 1.00
  0.3880000000D+00  0.1000000000D+01
 d    1 1.00
  0.1057000000D+01  0.1000000000D+01
  
  4 0
 s    8 1.00
  0.1533000000D+05  0.5201983070D-03
  0.2299000000D+04  0.4023344781D-02
  0.5224000000D+03  0.2072908333D-01
  0.1473000000D+03  0.8108232708D-01
  0.4755000000D+02  0.2362263521D+00
  0.1676000000D+02  0.4435182094D+00
  0.6207000000D+01  0.3586705887D+00
  0.6882000000D+00 -0.8349797237D-02
 s    8 1.00
  0.1533000000D+05 -0.1972360120D-03
  0.2299000000D+04 -0.1535010700D-02
  0.5224000000D+03 -0.7951183914D-02
  0.1473000000D+03 -0.3211345289D-01
  0.4755000000D+02 -0.1002696430D+00
  0.1676000000D+02 -0.2340471118D+00
  0.6207000000D+01 -0.3014109278D+00
  0.6882000000D+00  0.1034919650D+01
 s    1 1.00
  0.1752000000D+01  0.1000000000D+01
 s    1 1.00
  0.2384000000D+00  0.1000000000D+01
 p    3 1.00
  0.3446000000D+02  0.4116348957D-01
  0.7749000000D+01  0.2577628359D+00
  0.2280000000D+01  0.8024192744D+00
 p    1 1.00
  0.7156000000D+00  0.1000000000D+01
 p    1 1.00
  0.2140000000D+00  0.1000000000D+01
 d    1 1.00
  0.2314000000D+01  0.1000000000D+01
 d    1 1.00
  0.6450000000D+00  0.1000000000D+01
 f    1 1.00
  0.1428000000D+01  0.1000000000D+01
  
  5 0
 s    3 1.00
  0.3387000000D+02  0.2549486324D-01
  0.5095000000D+01  0.1903627659D+00
  0.1159000000D+01  0.8521620222D+00
 s    1 1.00
  0.3258000000D+00  0.1000000000D+01
 s    1 1.00
  0.1027000000D+00  0.1000000000D+01
 p    1 1.00
  0.1407000000D+01  0.1000000000D+01
 p    1 1.00
  0.3880000000D+00  0.1000000000D+01
 d    1 1.00
  0.1057000000D+01  0.1000000000D+01
  
  6 0
 s    3 1.00
  0.3387000000D+02  0.2549486324D-01
  0.5095000000D+01  0.1903627659D+00
  0.1159000000D+01  0.8521620222D+00
 s    1 1.00
  0.3258000000D+00  0.1000000000D+01
 s    1 1.00
  0.1027000000D+00  0.1000000000D+01
 p    1 1.00
  0.1407000000D+01  0.1000000000D+01
 p    1 1.00
  0.3880000000D+00  0.1000000000D+01
 d    1 1.00
  0.1057000000D+01  0.1000000000D+01
  
  7 0
 s    8 1.00
  0.1533000000D+05  0.5201983070D-03
  0.2299000000D+04  0.4023344781D-02
  0.5224000000D+03  0.2072908333D-01
  0.1473000000D+03  0.8108232708D-01
  0.4755000000D+02  0.2362263521D+00
  0.1676000000D+02  0.4435182094D+00
  0.6207000000D+01  0.3586705887D+00
  0.6882000000D+00 -0.8349797237D-02
 s    8 1.00
  0.1533000000D+05 -0.1972360120D-03
  0.2299000000D+04 -0.1535010700D-02
  0.5224000000D+03 -0.7951183914D-02
  0.1473000000D+03 -0.3211345289D-01
  0.4755000000D+02 -0.1002696430D+00
  0.1676000000D+02 -0.2340471118D+00
  0.6207000000D+01 -0.3014109278D+00
  0.6882000000D+00  0.1034919650D+01
 s    1 1.00
  0.1752000000D+01  0.1000000000D+01
 s    1 1.00
  0.2384000000D+00  0.1000000000D+01
 p    3 1.00
  0.3446000000D+02  0.4116348957D-01
  0.7749000000D+01  0.2577628359D+00
  0.2280000000D+01  0.8024192744D+00
 p    1 1.00
  0.7156000000D+00  0.1000000000D+01
 p    1 1.00
  0.2140000000D+00  0.1000000000D+01
 d    1 1.00
  0.2314000000D+01  0.1000000000D+01
 d    1 1.00
  0.6450000000D+00  0.1000000000D+01
 f    1 1.00
  0.1428000000D+01  0.1000000000D+01
  
  8 0
 s    3 1.00
  0.3387000000D+02  0.2549486324D-01
  0.5095000000D+01  0.1903627659D+00
  0.1159000000D+01  0.8521620222D+00
 s    1 1.00
  0.3258000000D+00  0.1000000000D+01
 s    1 1.00
  0.1027000000D+00  0.1000000000D+01
 p    1 1.00
  0.1407000000D+01  0.1000000000D+01
 p    1 1.00
  0.3880000000D+00  0.1000000000D+01
 d    1 1.00
  0.1057000000D+01  0.1000000000D+01
  
  9 0
 s    3 1.00
  0.3387000000D+02  0.2549486324D-01
  0.5095000000D+01  0.1903627659D+00
  0.1159000000D+01  0.8521620222D+00
 s    1 1.00
  0.3258000000D+00  0.1000000000D+01
 s    1 1.00
  0.1027000000D+00  0.1000000000D+01
 p    1 1.00
  0.1407000000D+01  0.1000000000D+01
 p    1 1.00
  0.3880000000D+00  0.1000000000D+01
 d    1 1.00
  0.1057000000D+01  0.1000000000D+01
  
 10 0
 s    8 1.00
  0.1533000000D+05  0.5201983070D-03
  0.2299000000D+04  0.4023344781D-02
  0.5224000000D+03  0.2072908333D-01
  0.1473000000D+03  0.8108232708D-01
  0.4755000000D+02  0.2362263521D+00
  0.1676000000D+02  0.4435182094D+00
  0.6207000000D+01  0.3586705887D+00
  0.6882000000D+00 -0.8349797237D-02
 s    8 1.00
  0.1533000000D+05 -0.1972360120D-03
  0.2299000000D+04 -0.1535010700D-02
  0.5224000000D+03 -0.7951183914D-02
  0.1473000000D+03 -0.3211345289D-01
  0.4755000000D+02 -0.1002696430D+00
  0.1676000000D+02 -0.2340471118D+00
  0.6207000000D+01 -0.3014109278D+00
  0.6882000000D+00  0.1034919650D+01
 s    1 1.00
  0.1752000000D+01  0.1000000000D+01
 s    1 1.00
  0.2384000000D+00  0.1000000000D+01
 p    3 1.00
  0.3446000000D+02  0.4116348957D-01
  0.7749000000D+01  0.2577628359D+00
  0.2280000000D+01  0.8024192744D+00
 p    1 1.00
  0.7156000000D+00  0.1000000000D+01
 p    1 1.00
  0.2140000000D+00  0.1000000000D+01
 d    1 1.00
  0.2314000000D+01  0.1000000000D+01
 d    1 1.00
  0.6450000000D+00  0.1000000000D+01
 f    1 1.00
  0.1428000000D+01  0.1000000000D+01
  
 11 0
 s    3 1.00
  0.3387000000D+02  0.2549486324D-01
  0.5095000000D+01  0.1903627659D+00
  0.1159000000D+01  0.8521620222D+00
 s    1 1.00
  0.3258000000D+00  0.1000000000D+01
 s    1 1.00
  0.1027000000D+00  0.1000000000D+01
 p    1 1.00
  0.1407000000D+01  0.1000000000D+01
 p    1 1.00
  0.3880000000D+00  0.1000000000D+01
 d    1 1.00
  0.1057000000D+01  0.1000000000D+01
  
 12 0
 s    3 1.00
  0.3387000000D+02  0.2549486324D-01
  0.5095000000D+01  0.1903627659D+00
  0.1159000000D+01  0.8521620222D+00
 s    1 1.00
  0.3258000000D+00  0.1000000000D+01
 s    1 1.00
  0.1027000000D+00  0.1000000000D+01
 p    1 1.00
  0.1407000000D+01  0.1000000000D+01
 p    1 1.00
  0.3880000000D+00  0.1000000000D+01
 d    1 1.00
  0.1057000000D+01  0.1000000000D+01
  
 13 0
 s    8 1.00
  0.1533000000D+05  0.5201983070D-03
  0.2299000000D+04  0.4023344781D-02
  0.5224000000D+03  0.2072908333D-01
  0.1473000000D+03  0.8108232708D-01
  0.4755000000D+02  0.2362263521D+00
  0.1676000000D+02  0.4435182094D+00
  0.6207000000D+01  0.3586705887D+00
  0.6882000000D+00 -0.8349797237D-02
 s    8 1.00
  0.1533000000D+05 -0.1972360120D-03
  0.2299000000D+04 -0.1535010700D-02
  0.5224000000D+03 -0.7951183914D-02
  0.1473000000D+03 -0.3211345289D-01
  0.4755000000D+02 -0.1002696430D+00
  0.1676000000D+02 -0.2340471118D+00
  0.6207000000D+01 -0.3014109278D+00
  0.6882000000D+00  0.1034919650D+01
 s    1 1.00
  0.1752000000D+01  0.1000000000D+01
 s    1 1.00
  0.2384000000D+00  0.1000000000D+01
 p    3 1.00
  0.3446000000D+02  0.4116348957D-01
  0.7749000000D+01  0.2577628359D+00
  0.2280000000D+01  0.8024192744D+00
 p    1 1.00
  0.7156000000D+00  0.1000000000D+01
 p    1 1.00
  0.2140000000D+00  0.1000000000D+01
 d    1 1.00
  0.2314000000D+01  0.1000000000D+01
 d    1 1.00
  0.6450000000D+00  0.1000000000D+01
 f    1 1.00
  0.1428000000D+01  0.1000000000D+01
  
 14 0
 s    3 1.00
  0.3387000000D+02  0.2549486324D-01
  0.5095000000D+01  0.1903627659D+00
  0.1159000000D+01  0.8521620222D+00
 s    1 1.00
  0.3258000000D+00  0.1000000000D+01
 s    1 1.00
  0.1027000000D+00  0.1000000000D+01
 p    1 1.00
  0.1407000000D+01  0.1000000000D+01
 p    1 1.00
  0.3880000000D+00  0.1000000000D+01
 d    1 1.00
  0.1057000000D+01  0.1000000000D+01
  
 15 0
 s    3 1.00
  0.3387000000D+02  0.2549486324D-01
  0.5095000000D+01  0.1903627659D+00
  0.1159000000D+01  0.8521620222D+00
 s    1 1.00
  0.3258000000D+00  0.1000000000D+01
 s    1 1.00
  0.1027000000D+00  0.1000000000D+01
 p    1 1.00
  0.1407000000D+01  0.1000000000D+01
 p    1 1.00
  0.3880000000D+00  0.1000000000D+01
 d    1 1.00
  0.1057000000D+01  0.1000000000D+01
 

[MO]
 Ene=   -20.5955
 Spin= Alpha
 Occup=   2.000000
   1  -0.000092
   2  -0.000071
   3  -0.000002
   4   0.000564
   5  -0.000000
   6   0.000002
   7   0.000004
   8   0.000008
   9  -0.000019
  10  -0.000031
  11   0.000242
  12  -0.000312
  13  -0.000048
  14   0.000002
  15  -0.000003
  16   0.000001
  17   0.000010
  18  -0.000002
  19  -0.000001
  20  -0.000007
  21   0.000022
  22  -0.000015
  23  -0.000083
  24   0.000013
  25   0.000010
  26  -0.000004
  27   0.000000
  28  -0.000002
  29   0.000016
  30  -0.000010
  31   0.000001
  32  -0.000011
  33   0.000010
  34   0.000002
  35   0.000001
  36   0.000009
  37  -0.000190
  38   0.000355
  39  -0.000001
  40  -0.000003
  41  -0.000016
  42  -0.000035
  43   0.000028
  44  -0.000013
  45   0.000003
  46   0.000002
  47  -0.000006
  48  -0.000004
  49  -0.000002
  50   0.000000
  51   0.000000
  52  -0.000411
  53  -0.000635
  54   0.000021
  55  -0.000028
  56   0.000003
  57   0.000020
  58  -0.000029
  59  -0.000056
  60   0.000000
  61  -0.000018
  62   0.000018
  63   0.000033
  64   0.000005
  65  -0.000007
  66   0.000016
  67   0.000035
  68  -0.000009
  69   0.000091
  70  -0.000000
  71  -0.000000
  72  -0.000002
  73  -0.000006
  74   0.000013
  75   0.000004
  76  -0.000075
  77   0.000088
  78  -0.000036
  79   0.000001
  80  -0.000001
  81   0.000000
  82   0.000002
  83   0.000000
  84   0.000001
  85   0.000001
  86   0.000011
  87  -0.000012
  88  -0.000019
  89  -0.000001
  90  -0.000002
  91   0.000002
  92  -0.000000
  93   0.000002
  94  -0.000003
  95   0.000002
  96  -0.000001
  97   0.000000
  98  -0.000001
  99  -0.000001
 100   0.000000
 101   0.000003
 102  -0.000012
 103  -0.000050
 104   0.000002
 105  -0.000001
 106   0.000006
 107   0.000000
 108  -0.000004
 109  -0.000020
 110   0.000000
 111   0.000002
 112  -0.000003
 113   0.000001
 114  -0.000001
 115   0.000001
 116   0.000004
 117  -0.000131
 118  -0.000018
 119  -0.000003
 120   0.000003
 121   0.000001
 122  -0.000033
 123   0.000049
 124   0.000001
 125  -0.000000
 126  -0.000004
 127   0.000005
 128   0.000008
 129  -0.000000
 130  -0.000001
 131   0.000006
 132   0.000012
 133  -0.000005
 134   0.000053
 135   0.000000
 136   0.000000
 137  -0.000001
 138  -0.000001
 139  -0.000001
 140   0.000007
 141   0.000026
 142   0.000009
 143   0.000027
 144  -0.000001
 145   0.000002
 146  -0.000000
 147   0.000001
 148  -0.000001
 149   0.000001
 150   0.000009
 151  -0.000011
 152   0.000002
 153  -0.000000
 154   0.000000
 155  -0.000002
 156   0.000002
 157  -0.000000
 158   0.000000
 159  -0.000001
 160   0.000001
 161   0.000001
 162  -0.000002
 163  -0.000001
 164  -0.000001
 165   0.000001
 166   0.000004
 167  -0.000060
 168   0.000031
 169   0.000006
 170   0.000003
 171  -0.000001
 172   0.000007
 173  -0.000007
 174   0.000004
 175  -0.000001
 176   0.000001
 177   0.000001
 178   0.000001
 179  -0.000001
 180  -0.000000
 181   0.000004
 182  -0.000039
 183  -0.000033
 184  -0.000002
 185  -0.000002
 186   0.000003
 187  -0.000007
 188   0.000011
 189   0.000011
 190   0.000000
 191   0.000002
 192  -0.000002
 193  -0.000000
 194   0.000002
 195  -0.000003
 196   0.975803
 197  -0.000786
 198   0.043479
 199   0.001276
 200  -0.000159
 201  -0.001618
 202  -0.000717
 203   0.000142
 204   0.001274
 205   0.000597
 206  -0.000218
 207   0.000473
 208   0.000042
 209  -0.000027
 210   0.000019
 211   0.000009
 212   0.000025
 213  -0.000021
 214   0.000004
 215   0.000360
 216  -0.000152
 217  -0.000208
 218  -0.000194
 219   0.000387
 220  -0.000014
 221   0.000002
 222  -0.000000
 223   0.000052
 224   0.000050
 225  -0.000037
 226  -0.000021
 227  -0.000053
 228   0.000037
 229  -0.000049
 230  -0.000065
 231   0.000465
 232   0.001086
 233  -0.000162
 234  -0.000127
 235   0.000074
 236   0.000277
 237  -0.000168
 238   0.000103
 239   0.000586
 240   0.000013
 241  -0.000010
 242  -0.000003
 243   0.000029
 244  -0.000011
 245  -0.000069
 246   0.000475
 247   0.001073
 248  -0.000158
 249   0.000103
 250   0.000225
 251  -0.000157
 252   0.000305
 253   0.000429
 254  -0.000291
 255   0.000018
 256  -0.000079
 257   0.000061
 258  -0.000031
 259  -0.000020
 260   0.000017
 261   0.000011
 262   0.000021
 263  -0.000005
 264  -0.000133
 265   0.000000
 266  -0.000003
 267  -0.000004
 268   0.000006
 269   0.000023
 270   0.000023
 271   0.000055
 272   0.000038
 273   0.000033
 274  -0.000001
 275  -0.000000
 276   0.000001
 277   0.000001
 278   0.000002
 279  -0.000000
 280   0.000013
 281  -0.000004
 282  -0.000009
 283  -0.000002
 284  -0.000012
 285  -0.000010
 286   0.000000
 287  -0.000000
 288   0.000000
 289  -0.000001
 290   0.000000
 291  -0.000001
 292   0.000000
 293   0.000000
 294   0.000001
 295   0.000000
 296   0.000003
 297   0.000066
 298   0.000187
 299   0.000001
 300  -0.000000
 301   0.000002
 302  -0.000012
 303   0.000056
 304   0.000047
 305  -0.000002
 306  -0.000001
 307   0.000003
 308  -0.000000
 309   0.000004
 310   0.000002
 311   0.000003
 312  -0.000048
 313  -0.000024
 314   0.000002
 315   0.000002
 316   0.000001
 317   0.000016
 318   0.000007
 319  -0.000001
 320  -0.000003
 321   0.000001
 322   0.000002
 323  -0.000003
 324  -0.000001
 325  -0.000000
 Ene=   -20.5670
 Spin= Alpha
 Occup=   2.000000
   1  -0.000071
   2   0.000033
   3  -0.000020
   4   0.000474
   5  -0.000002
   6   0.000006
   7   0.000002
   8   0.000037
   9  -0.000061
  10  -0.000020
  11  -0.000040
  12  -0.000058
  13  -0.000199
  14  -0.000004
  15  -0.000001
  16   0.000005
  17   0.000003
  18  -0.000007
  19   0.000006
  20   0.000015
  21   0.000008
  22  -0.000023
  23  -0.000057
  24   0.000038
  25  -0.000025
  26   0.000000
  27  -0.000001
  28  -0.000002
  29   0.000009
  30  -0.000003
  31  -0.000000
  32  -0.000009
  33   0.000004
  34   0.000003
  35   0.000004
  36   0.000010
  37  -0.000187
  38  -0.000451
  39  -0.000030
  40   0.000017
  41  -0.000006
  42   0.000124
  43  -0.000092
  44  -0.000070
  45  -0.000003
  46   0.000015
  47  -0.000011
  48   0.000010
  49  -0.000007
  50  -0.000005
  51   0.000016
  52  -0.000326
  53   0.000238
  54   0.000009
  55  -0.000012
  56  -0.000010
  57   0.000105
  58  -0.000125
  59   0.000009
  60   0.000000
  61  -0.000010
  62   0.000010
  63   0.000024
  64   0.000004
  65  -0.000006
  66   0.975831
  67  -0.000687
  68   0.043523
  69   0.000991
  70  -0.000293
  71   0.001166
  72  -0.001397
  73   0.000369
  74  -0.001059
  75   0.000955
  76   0.000433
  77  -0.000446
  78   0.000184
  79  -0.000034
  80  -0.000016
  81   0.000050
  82  -0.000018
  83  -0.000038
  84  -0.000018
  85   0.000164
  86  -0.000077
  87  -0.000086
  88   0.000492
  89   0.000210
  90   0.000113
  91  -0.000024
  92   0.000012
  93   0.000026
  94   0.000098
  95  -0.000033
  96  -0.000027
  97  -0.000066
  98   0.000017
  99  -0.000008
 100  -0.000015
 101   0.000526
 102   0.000746
 103  -0.000188
 104  -0.000095
 105   0.000035
 106   0.000169
 107  -0.000243
 108   0.000072
 109   0.000353
 110   0.000081
 111   0.000098
 112  -0.000179
 113  -0.000037
 114   0.000076
 115   0.000053
 116   0.000430
 117   0.001622
 118  -0.000163
 119   0.000234
 120  -0.000261
 121  -0.000034
 122   0.000488
 123  -0.000675
 124  -0.000053
 125   0.000015
 126  -0.000015
 127  -0.000000
 128  -0.000030
 129  -0.000050
 130   0.000050
 131  -0.000022
 132  -0.000017
 133   0.000006
 134   0.000016
 135  -0.000001
 136  -0.000003
 137  -0.000003
 138   0.000000
 139   0.000011
 140   0.000017
 141  -0.000067
 142  -0.000037
 143  -0.000006
 144   0.000001
 145  -0.000002
 146   0.000001
 147  -0.000002
 148   0.000001
 149   0.000001
 150  -0.000006
 151   0.000005
 152   0.000001
 153   0.000003
 154  -0.000009
 155  -0.000003
 156   0.000000
 157   0.000001
 158  -0.000000
 159   0.000000
 160  -0.000001
 161  -0.000000
 162  -0.000000
 163  -0.000001
 164   0.000000
 165   0.000000
 166  -0.000003
 167   0.000052
 168   0.000013
 169   0.000000
 170  -0.000004
 171   0.000000
 172  -0.000022
 173   0.000012
 174   0.000000
 175   0.000002
 176  -0.000002
 177  -0.000001
 178  -0.000001
 179  -0.000002
 180   0.000000
 181  -0.000005
 182  -0.000019
 183   0.000011
 184   0.000006
 185   0.000002
 186  -0.000001
 187  -0.000023
 188  -0.000001
 189   0.000026
 190   0.000003
 191   0.000002
 192  -0.000005
 193   0.000004
 194   0.000003
 195  -0.000002
 196   0.000022
 197   0.000031
 198  -0.000006
 199  -0.000024
 200   0.000001
 201  -0.000002
 202  -0.000000
 203  -0.000005
 204   0.000009
 205   0.000002
 206   0.000031
 207  -0.000074
 208  -0.000008
 209   0.000001
 210   0.000000
 211  -0.000002
 212  -0.000002
 213   0.000000
 214  -0.000001
 215  -0.000004
 216  -0.000000
 217   0.000004
 218   0.000009
 219  -0.000002
 220   0.000006
 221  -0.000001
 222  -0.000000
 223   0.000000
 224   0.000001
 225  -0.000000
 226   0.000000
 227  -0.000000
 228   0.000001
 229  -0.000001
 230  -0.000000
 231   0.000001
 232  -0.000025
 233  -0.000001
 234   0.000002
 235  -0.000001
 236  -0.000000
 237  -0.000003
 238   0.000008
 239  -0.000007
 240  -0.000001
 241   0.000001
 242  -0.000000
 243  -0.000000
 244   0.000000
 245   0.000001
 246   0.000001
 247  -0.000017
 248  -0.000032
 249   0.000002
 250   0.000001
 251  -0.000002
 252  -0.000010
 253  -0.000005
 254   0.000013
 255   0.000000
 256   0.000000
 257  -0.000001
 258   0.000000
 259   0.000001
 260   0.000002
 261  -0.000006
 262  -0.000009
 263   0.000003
 264   0.000024
 265  -0.000001
 266   0.000002
 267  -0.000001
 268   0.000003
 269  -0.000007
 270   0.000003
 271  -0.000010
 272  -0.000004
 273  -0.000017
 274   0.000001
 275  -0.000000
 276  -0.000001
 277   0.000000
 278   0.000000
 279  -0.000001
 280  -0.000004
 281   0.000002
 282   0.000002
 283  -0.000003
 284  -0.000003
 285   0.000001
 286  -0.000001
 287  -0.000000
 288   0.000000
 289   0.000001
 290  -0.000001
 291  -0.000001
 292   0.000001
 293   0.000001
 294   0.000001
 295   0.000001
 296  -0.000006
 297   0.000021
 298  -0.000003
 299   0.000004
 300   0.000002
 301   0.000007
 302  -0.000016
 303  -0.000014
 304  -0.000033
 305  -0.000002
 306   0.000001
 307   0.000001
 308  -0.000000
 309  -0.000001
 310   0.000003
 311  -0.000001
 312   0.000012
 313  -0.000006
 314  -0.000002
 315  -0.000001
 316  -0.000000
 317  -0.000003
 318  -0.000002
 319   0.000006
 320   0.000000
 321  -0.000001
 322   0.000000
 323   0.000001
 324  -0.000001
 325   0.000000
 Ene=   -20.5528
 Spin= Alpha
 Occup=   2.000000
   1  -0.000202
   2  -0.000016
   3  -0.000003
   4  -0.000060
   5   0.000004
   6  -0.000009
   7   0.000006
   8  -0.000054
   9   0.000057
  10  -0.000044
  11  -0.000096
  12   0.000159
  13  -0.000032
  14   0.000002
  15  -0.000003
  16   0.000002
  17  -0.000004
  18   0.000001
  19   0.000005
  20  -0.000024
  21  -0.000019
  22   0.000042
  23   0.000042
  24   0.000015
  25  -0.000037
  26   0.000003
  27  -0.000005
  28  -0.000007
  29  -0.000006
  30   0.000003
  31   0.000005
  32   0.000002
  33   0.000004
  34   0.000005
  35  -0.000002
  36  -0.000004
  37  -0.000092
  38  -0.000095
  39   0.000001
  40   0.000010
  41  -0.000010
  42  -0.000044
  43  -0.000040
  44  -0.000087
  45   0.000001
  46   0.000010
  47  -0.000012
  48  -0.000001
  49  -0.000021
  50  -0.000011
  51  -0.000005
  52   0.000251
  53   0.000067
  54  -0.000010
  55   0.000013
  56   0.000005
  57  -0.000076
  58   0.000100
  59  -0.000011
  60  -0.000000
  61   0.000014
  62  -0.000014
  63  -0.000020
  64   0.000002
  65  -0.000004
  66   0.000004
  67  -0.000014
  68   0.000004
  69   0.000135
  70   0.000001
  71  -0.000001
  72   0.000002
  73  -0.000001
  74   0.000005
  75  -0.000021
  76   0.000032
  77   0.000018
  78  -0.000033
  79  -0.000001
  80  -0.000000
  81   0.000001
  82  -0.000001
  83   0.000000
  84   0.000000
  85   0.000002
  86  -0.000003
  87   0.000002
  88  -0.000000
  89  -0.000008
  90  -0.000002
  91   0.000000
  92  -0.000001
  93  -0.000000
  94  -0.000002
  95   0.000002
  96  -0.000001
  97   0.000001
  98   0.000000
  99   0.000001
 100  -0.000001
 101  -0.000002
 102  -0.000070
 103  -0.000041
 104  -0.000003
 105   0.000002
 106   0.000001
 107   0.000023
 108  -0.000012
 109  -0.000046
 110   0.000004
 111   0.000003
 112  -0.000007
 113   0.000001
 114   0.000003
 115  -0.000003
 116   0.000003
 117  -0.000044
 118   0.000038
 119  -0.000004
 120   0.000002
 121   0.000000
 122   0.000000
 123   0.000001
 124  -0.000002
 125   0.000000
 126  -0.000001
 127   0.000001
 128  -0.000001
 129  -0.000001
 130   0.000001
 131   0.975813
 132  -0.000764
 133   0.043478
 134   0.001273
 135   0.000820
 136   0.000167
 137   0.001599
 138  -0.000732
 139  -0.000140
 140  -0.001294
 141  -0.000204
 142  -0.000025
 143  -0.000060
 144   0.000012
 145  -0.000032
 146   0.000019
 147  -0.000000
 148  -0.000011
 149   0.000004
 150  -0.000402
 151   0.000523
 152  -0.000121
 153  -0.000012
 154   0.000106
 155  -0.000076
 156  -0.000101
 157   0.000018
 158  -0.000019
 159   0.000044
 160  -0.000010
 161  -0.000042
 162   0.000091
 163  -0.000014
 164   0.000067
 165   0.000002
 166   0.000455
 167   0.001222
 168  -0.000188
 169  -0.000333
 170  -0.000013
 171  -0.000031
 172  -0.000673
 173  -0.000021
 174  -0.000093
 175   0.000009
 176  -0.000011
 177   0.000002
 178  -0.000005
 179  -0.000058
 180   0.000001
 181   0.000457
 182   0.000986
 183  -0.000452
 184   0.000164
 185  -0.000023
 186  -0.000245
 187   0.000257
 188  -0.000007
 189  -0.000435
 190   0.000063
 191   0.000017
 192  -0.000080
 193   0.000006
 194   0.000023
 195  -0.000013
 196   0.000005
 197   0.000006
 198  -0.000002
 199   0.000008
 200   0.000000
 201  -0.000001
 202   0.000001
 203   0.000002
 204   0.000003
 205  -0.000007
 206   0.000002
 207  -0.000007
 208  -0.000014
 209  -0.000000
 210  -0.000000
 211   0.000000
 212   0.000001
 213   0.000000
 214  -0.000000
 215  -0.000001
 216  -0.000001
 217   0.000002
 218  -0.000005
 219  -0.000002
 220   0.000005
 221  -0.000000
 222   0.000000
 223   0.000000
 224  -0.000001
 225   0.000001
 226   0.000001
 227   0.000001
 228  -0.000001
 229  -0.000001
 230   0.000000
 231   0.000003
 232  -0.000031
 233   0.000009
 234   0.000000
 235  -0.000000
 236  -0.000003
 237   0.000004
 238  -0.000003
 239  -0.000006
 240   0.000001
 241   0.000001
 242  -0.000002
 243   0.000001
 244   0.000001
 245  -0.000000
 246   0.000001
 247   0.000006
 248  -0.000011
 249   0.000000
 250   0.000002
 251  -0.000002
 252   0.000002
 253   0.000001
 254   0.000004
 255  -0.000001
 256   0.000001
 257  -0.000000
 258   0.000001
 259   0.000000
 260  -0.000000
 261   0.000026
 262   0.000051
 263  -0.000016
 264   0.000073
 265  -0.000001
 266   0.000006
 267  -0.000004
 268   0.000011
 269  -0.000028
 270   0.000001
 271   0.000033
 272  -0.000007
 273  -0.000083
 274  -0.000001
 275   0.000002
 276  -0.000001
 277  -0.000003
 278  -0.000000
 279  -0.000003
 280   0.000008
 281  -0.000009
 282   0.000001
 283   0.000021
 284   0.000007
 285   0.000026
 286   0.000005
 287   0.000000
 288   0.000000
 289  -0.000001
 290   0.000004
 291   0.000002
 292  -0.000005
 293  -0.000005
 294  -0.000002
 295  -0.000002
 296   0.000012
 297  -0.000171
 298   0.000074
 299  -0.000004
 300  -0.000011
 301  -0.000005
 302   0.000010
 303  -0.000025
 304  -0.000029
 305   0.000002
 306   0.000002
 307  -0.000004
 308   0.000003
 309  -0.000000
 310  -0.000009
 311   0.000012
 312  -0.000135
 313   0.000103
 314   0.000013
 315   0.000001
 316   0.000007
 317   0.000005
 318   0.000014
 319  -0.000024
 320  -0.000002
 321  -0.000001
 322   0.000003
 323  -0.000002
 324   0.000007
 325   0.000001
 Ene=   -20.5460
 Spin= Alpha
 Occup=   2.000000
   1   0.975667
   2  -0.000914
   3   0.043613
   4   0.001223
   5   0.000415
   6  -0.000912
   7  -0.001317
   8  -0.000444
   9   0.000864
  10   0.001033
  11   0.000015
  12   0.000263
  13   0.000503
  14  -0.000040
  15  -0.000025
  16   0.000065
  17  -0.000025
  18   0.000018
  19   0.000045
  20   0.000210
  21   0.000065
  22  -0.000274
  23   0.000386
  24  -0.000136
  25  -0.000227
  26   0.000010
  27  -0.000014
  28   0.000027
  29  -0.000051
  30   0.000009
  31  -0.000026
  32   0.000038
  33   0.000009
  34  -0.000010
  35  -0.000031
  36   0.000506
  37   0.001082
  38  -0.000075
  39   0.000113
  40  -0.000049
  41   0.000208
  42   0.000227
  43  -0.000092
  44   0.000507
  45   0.000070
  46   0.000066
  47  -0.000137
  48  -0.000023
  49  -0.000027
  50  -0.000061
  51   0.000441
  52   0.001238
  53  -0.000543
  54  -0.000147
  55   0.000169
  56  -0.000012
  57  -0.000626
  58   0.000733
  59  -0.000042
  60   0.000019
  61  -0.000022
  62   0.000004
  63  -0.000001
  64   0.000061
  65  -0.000068
  66   0.000067
  67  -0.000045
  68   0.000005
  69  -0.000117
  70  -0.000005
  71   0.000004
  72  -0.000005
  73   0.000018
  74  -0.000031
  75   0.000026
  76   0.000055
  77  -0.000076
  78  -0.000070
  79   0.000001
  80   0.000002
  81  -0.000003
  82   0.000002
  83   0.000004
  84   0.000001
  85  -0.000007
  86  -0.000020
  87   0.000027
  88   0.000016
  89  -0.000003
  90  -0.000008
  91  -0.000002
  92  -0.000000
  93  -0.000003
  94   0.000004
  95  -0.000003
  96   0.000003
  97  -0.000001
  98   0.000003
  99   0.000002
 100   0.000001
 101  -0.000004
 102  -0.000044
 103   0.000054
 104  -0.000009
 105   0.000002
 106  -0.000013
 107   0.000020
 108  -0.000001
 109   0.000047
 110  -0.000006
 111  -0.000009
 112   0.000015
 113  -0.000001
 114  -0.000002
 115  -0.000003
 116  -0.000007
 117   0.000150
 118   0.000022
 119   0.000003
 120  -0.000005
 121  -0.000009
 122   0.000055
 123  -0.000065
 124   0.000033
 125   0.000002
 126   0.000007
 127  -0.000009
 128  -0.000016
 129   0.000003
 130  -0.000002
 131   0.000189
 132  -0.000007
 133   0.000005
 134   0.000178
 135   0.000002
 136   0.000002
 137  -0.000005
 138  -0.000004
 139  -0.000001
 140   0.000028
 141  -0.000004
 142  -0.000042
 143   0.000063
 144  -0.000002
 145   0.000001
 146   0.000001
 147  -0.000003
 148   0.000002
 149   0.000007
 150   0.000015
 151  -0.000019
 152   0.000004
 153   0.000015
 154  -0.000022
 155  -0.000029
 156   0.000006
 157   0.000004
 158   0.000001
 159  -0.000000
 160   0.000000
 161   0.000001
 162  -0.000008
 163  -0.000005
 164  -0.000002
 165   0.000004
 166   0.000005
 167  -0.000082
 168   0.000044
 169   0.000007
 170   0.000001
 171   0.000001
 172   0.000015
 173   0.000002
 174   0.000007
 175  -0.000001
 176   0.000001
 177  -0.000000
 178   0.000001
 179  -0.000005
 180   0.000001
 181   0.000003
 182  -0.000099
 183  -0.000059
 184  -0.000009
 185  -0.000015
 186   0.000012
 187  -0.000011
 188   0.000067
 189   0.000044
 190   0.000008
 191  -0.000002
 192  -0.000006
 193   0.000004
 194   0.000004
 195  -0.000016
 196  -0.000017
 197  -0.000123
 198   0.000019
 199   0.000665
 200  -0.000005
 201   0.000016
 202   0.000006
 203   0.000056
 204  -0.000132
 205  -0.000051
 206  -0.000189
 207   0.000197
 208  -0.000186
 209  -0.000001
 210  -0.000008
 211   0.000010
 212   0.000027
 213  -0.000004
 214   0.000006
 215  -0.000022
 216   0.000019
 217   0.000004
 218  -0.000077
 219  -0.000019
 220  -0.000010
 221   0.000004
 222   0.000001
 223  -0.000006
 224  -0.000016
 225   0.000010
 226   0.000003
 227   0.000011
 228  -0.000011
 229   0.000005
 230   0.000006
 231   0.000028
 232  -0.000373
 233   0.000052
 234  -0.000003
 235   0.000003
 236  -0.000023
 237   0.000092
 238  -0.000091
 239  -0.000106
 240   0.000010
 241   0.000009
 242  -0.000019
 243   0.000013
 244   0.000014
 245  -0.000014
 246   0.000018
 247  -0.000159
 248   0.000082
 249  -0.000024
 250  -0.000004
 251  -0.000005
 252   0.000027
 253  -0.000066
 254   0.000053