[Molden Format]
[Atoms] Angs
 O     1  8     3.091999     2.456999    -4.693998
 H     2  1     2.766999     2.488999    -5.593998
 H     3  1     3.701999     1.693999    -4.797998
 O     4  8     1.039000     3.464999    -6.491998
 H     5  1     1.399999     3.464999    -7.360997
 H     6  1     0.435000     4.251998    -6.496998
 O     7  8     4.523998     4.555998    -6.607998
 H     8  1     5.495998     4.595998    -6.435998
 H     9  1     4.073999     4.621998    -5.746998
 O    10  8     4.915998     0.165000    -4.626998
 H    11  1     5.243998    -0.138000    -5.506998
 H    12  1     4.540998    -0.631000    -4.200998
 O    13  8     3.359999     3.870999    -2.602999
 H    14  1     3.247999     3.239999    -3.342999
 H    15  1     4.272998     4.206998    -2.738999
[GTO]
  1 0
 s    8 1.00
  0.1533000000D+05  0.5201983070D-03
  0.2299000000D+04  0.4023344781D-02
  0.5224000000D+03  0.2072908333D-01
  0.1473000000D+03  0.8108232708D-01
  0.4755000000D+02  0.2362263521D+00
  0.1676000000D+02  0.4435182094D+00
  0.6207000000D+01  0.3586705887D+00
  0.6882000000D+00 -0.8349797237D-02
 s    8 1.00
  0.1533000000D+05 -0.1972360120D-03
  0.2299000000D+04 -0.1535010700D-02
  0.5224000000D+03 -0.7951183914D-02
  0.1473000000D+03 -0.3211345289D-01
  0.4755000000D+02 -0.1002696430D+00
  0.1676000000D+02 -0.2340471118D+00
  0.6207000000D+01 -0.3014109278D+00
  0.6882000000D+00  0.1034919650D+01
 s    1 1.00
  0.1752000000D+01  0.1000000000D+01
 s    1 1.00
  0.2384000000D+00  0.1000000000D+01
 p    3 1.00
  0.3446000000D+02  0.4116348957D-01
  0.7749000000D+01  0.2577628359D+00
  0.2280000000D+01  0.8024192744D+00
 p    1 1.00
  0.7156000000D+00  0.1000000000D+01
 p    1 1.00
  0.2140000000D+00  0.1000000000D+01
 d    1 1.00
  0.2314000000D+01  0.1000000000D+01
 d    1 1.00
  0.6450000000D+00  0.1000000000D+01
 f    1 1.00
  0.1428000000D+01  0.1000000000D+01
  
  2 0
 s    3 1.00
  0.3387000000D+02  0.2549486324D-01
  0.5095000000D+01  0.1903627659D+00
  0.1159000000D+01  0.8521620222D+00
 s    1 1.00
  0.3258000000D+00  0.1000000000D+01
 s    1 1.00
  0.1027000000D+00  0.1000000000D+01
 p    1 1.00
  0.1407000000D+01  0.1000000000D+01
 p    1 1.00
  0.3880000000D+00  0.1000000000D+01
 d    1 1.00
  0.1057000000D+01  0.1000000000D+01
  
  3 0
 s    3 1.00
  0.3387000000D+02  0.2549486324D-01
  0.5095000000D+01  0.1903627659D+00
  0.1159000000D+01  0.8521620222D+00
 s    1 1.00
  0.3258000000D+00  0.1000000000D+01
 s    1 1.00
  0.1027000000D+00  0.1000000000D+01
 p    1 1.00
  0.1407000000D+01  0.1000000000D+01
 p    1 1.00
  0.3880000000D+00  0.1000000000D+01
 d    1 1.00
  0.1057000000D+01  0.1000000000D+01
  
  4 0
 s    8 1.00
  0.1533000000D+05  0.5201983070D-03
  0.2299000000D+04  0.4023344781D-02
  0.5224000000D+03  0.2072908333D-01
  0.1473000000D+03  0.8108232708D-01
  0.4755000000D+02  0.2362263521D+00
  0.1676000000D+02  0.4435182094D+00
  0.6207000000D+01  0.3586705887D+00
  0.6882000000D+00 -0.8349797237D-02
 s    8 1.00
  0.1533000000D+05 -0.1972360120D-03
  0.2299000000D+04 -0.1535010700D-02
  0.5224000000D+03 -0.7951183914D-02
  0.1473000000D+03 -0.3211345289D-01
  0.4755000000D+02 -0.1002696430D+00
  0.1676000000D+02 -0.2340471118D+00
  0.6207000000D+01 -0.3014109278D+00
  0.6882000000D+00  0.1034919650D+01
 s    1 1.00
  0.1752000000D+01  0.1000000000D+01
 s    1 1.00
  0.2384000000D+00  0.1000000000D+01
 p    3 1.00
  0.3446000000D+02  0.4116348957D-01
  0.7749000000D+01  0.2577628359D+00
  0.2280000000D+01  0.8024192744D+00
 p    1 1.00
  0.7156000000D+00  0.1000000000D+01
 p    1 1.00
  0.2140000000D+00  0.1000000000D+01
 d    1 1.00
  0.2314000000D+01  0.1000000000D+01
 d    1 1.00
  0.6450000000D+00  0.1000000000D+01
 f    1 1.00
  0.1428000000D+01  0.1000000000D+01
  
  5 0
 s    3 1.00
  0.3387000000D+02  0.2549486324D-01
  0.5095000000D+01  0.1903627659D+00
  0.1159000000D+01  0.8521620222D+00
 s    1 1.00
  0.3258000000D+00  0.1000000000D+01
 s    1 1.00
  0.1027000000D+00  0.1000000000D+01
 p    1 1.00
  0.1407000000D+01  0.1000000000D+01
 p    1 1.00
  0.3880000000D+00  0.1000000000D+01
 d    1 1.00
  0.1057000000D+01  0.1000000000D+01
  
  6 0
 s    3 1.00
  0.3387000000D+02  0.2549486324D-01
  0.5095000000D+01  0.1903627659D+00
  0.1159000000D+01  0.8521620222D+00
 s    1 1.00
  0.3258000000D+00  0.1000000000D+01
 s    1 1.00
  0.1027000000D+00  0.1000000000D+01
 p    1 1.00
  0.1407000000D+01  0.1000000000D+01
 p    1 1.00
  0.3880000000D+00  0.1000000000D+01
 d    1 1.00
  0.1057000000D+01  0.1000000000D+01
  
  7 0
 s    8 1.00
  0.1533000000D+05  0.5201983070D-03
  0.2299000000D+04  0.4023344781D-02
  0.5224000000D+03  0.2072908333D-01
  0.1473000000D+03  0.8108232708D-01
  0.4755000000D+02  0.2362263521D+00
  0.1676000000D+02  0.4435182094D+00
  0.6207000000D+01  0.3586705887D+00
  0.6882000000D+00 -0.8349797237D-02
 s    8 1.00
  0.1533000000D+05 -0.1972360120D-03
  0.2299000000D+04 -0.1535010700D-02
  0.5224000000D+03 -0.7951183914D-02
  0.1473000000D+03 -0.3211345289D-01
  0.4755000000D+02 -0.1002696430D+00
  0.1676000000D+02 -0.2340471118D+00
  0.6207000000D+01 -0.3014109278D+00
  0.6882000000D+00  0.1034919650D+01
 s    1 1.00
  0.1752000000D+01  0.1000000000D+01
 s    1 1.00
  0.2384000000D+00  0.1000000000D+01
 p    3 1.00
  0.3446000000D+02  0.4116348957D-01
  0.7749000000D+01  0.2577628359D+00
  0.2280000000D+01  0.8024192744D+00
 p    1 1.00
  0.7156000000D+00  0.1000000000D+01
 p    1 1.00
  0.2140000000D+00  0.1000000000D+01
 d    1 1.00
  0.2314000000D+01  0.1000000000D+01
 d    1 1.00
  0.6450000000D+00  0.1000000000D+01
 f    1 1.00
  0.1428000000D+01  0.1000000000D+01
  
  8 0
 s    3 1.00
  0.3387000000D+02  0.2549486324D-01
  0.5095000000D+01  0.1903627659D+00
  0.1159000000D+01  0.8521620222D+00
 s    1 1.00
  0.3258000000D+00  0.1000000000D+01
 s    1 1.00
  0.1027000000D+00  0.1000000000D+01
 p    1 1.00
  0.1407000000D+01  0.1000000000D+01
 p    1 1.00
  0.3880000000D+00  0.1000000000D+01
 d    1 1.00
  0.1057000000D+01  0.1000000000D+01
  
  9 0
 s    3 1.00
  0.3387000000D+02  0.2549486324D-01
  0.5095000000D+01  0.1903627659D+00
  0.1159000000D+01  0.8521620222D+00
 s    1 1.00
  0.3258000000D+00  0.1000000000D+01
 s    1 1.00
  0.1027000000D+00  0.1000000000D+01
 p    1 1.00
  0.1407000000D+01  0.1000000000D+01
 p    1 1.00
  0.3880000000D+00  0.1000000000D+01
 d    1 1.00
  0.1057000000D+01  0.1000000000D+01
  
 10 0
 s    8 1.00
  0.1533000000D+05  0.5201983070D-03
  0.2299000000D+04  0.4023344781D-02
  0.5224000000D+03  0.2072908333D-01
  0.1473000000D+03  0.8108232708D-01
  0.4755000000D+02  0.2362263521D+00
  0.1676000000D+02  0.4435182094D+00
  0.6207000000D+01  0.3586705887D+00
  0.6882000000D+00 -0.8349797237D-02
 s    8 1.00
  0.1533000000D+05 -0.1972360120D-03
  0.2299000000D+04 -0.1535010700D-02
  0.5224000000D+03 -0.7951183914D-02
  0.1473000000D+03 -0.3211345289D-01
  0.4755000000D+02 -0.1002696430D+00
  0.1676000000D+02 -0.2340471118D+00
  0.6207000000D+01 -0.3014109278D+00
  0.6882000000D+00  0.1034919650D+01
 s    1 1.00
  0.1752000000D+01  0.1000000000D+01
 s    1 1.00
  0.2384000000D+00  0.1000000000D+01
 p    3 1.00
  0.3446000000D+02  0.4116348957D-01
  0.7749000000D+01  0.2577628359D+00
  0.2280000000D+01  0.8024192744D+00
 p    1 1.00
  0.7156000000D+00  0.1000000000D+01
 p    1 1.00
  0.2140000000D+00  0.1000000000D+01
 d    1 1.00
  0.2314000000D+01  0.1000000000D+01
 d    1 1.00
  0.6450000000D+00  0.1000000000D+01
 f    1 1.00
  0.1428000000D+01  0.1000000000D+01
  
 11 0
 s    3 1.00
  0.3387000000D+02  0.2549486324D-01
  0.5095000000D+01  0.1903627659D+00
  0.1159000000D+01  0.8521620222D+00
 s    1 1.00
  0.3258000000D+00  0.1000000000D+01
 s    1 1.00
  0.1027000000D+00  0.1000000000D+01
 p    1 1.00
  0.1407000000D+01  0.1000000000D+01
 p    1 1.00
  0.3880000000D+00  0.1000000000D+01
 d    1 1.00
  0.1057000000D+01  0.1000000000D+01
  
 12 0
 s    3 1.00
  0.3387000000D+02  0.2549486324D-01
  0.5095000000D+01  0.1903627659D+00
  0.1159000000D+01  0.8521620222D+00
 s    1 1.00
  0.3258000000D+00  0.1000000000D+01
 s    1 1.00
  0.1027000000D+00  0.1000000000D+01
 p    1 1.00
  0.1407000000D+01  0.1000000000D+01
 p    1 1.00
  0.3880000000D+00  0.1000000000D+01
 d    1 1.00
  0.1057000000D+01  0.1000000000D+01
  
 13 0
 s    8 1.00
  0.1533000000D+05  0.5201983070D-03
  0.2299000000D+04  0.4023344781D-02
  0.5224000000D+03  0.2072908333D-01
  0.1473000000D+03  0.8108232708D-01
  0.4755000000D+02  0.2362263521D+00
  0.1676000000D+02  0.4435182094D+00
  0.6207000000D+01  0.3586705887D+00
  0.6882000000D+00 -0.8349797237D-02
 s    8 1.00
  0.1533000000D+05 -0.1972360120D-03
  0.2299000000D+04 -0.1535010700D-02
  0.5224000000D+03 -0.7951183914D-02
  0.1473000000D+03 -0.3211345289D-01
  0.4755000000D+02 -0.1002696430D+00
  0.1676000000D+02 -0.2340471118D+00
  0.6207000000D+01 -0.3014109278D+00
  0.6882000000D+00  0.1034919650D+01
 s    1 1.00
  0.1752000000D+01  0.1000000000D+01
 s    1 1.00
  0.2384000000D+00  0.1000000000D+01
 p    3 1.00
  0.3446000000D+02  0.4116348957D-01
  0.7749000000D+01  0.2577628359D+00
  0.2280000000D+01  0.8024192744D+00
 p    1 1.00
  0.7156000000D+00  0.1000000000D+01
 p    1 1.00
  0.2140000000D+00  0.1000000000D+01
 d    1 1.00
  0.2314000000D+01  0.1000000000D+01
 d    1 1.00
  0.6450000000D+00  0.1000000000D+01
 f    1 1.00
  0.1428000000D+01  0.1000000000D+01
  
 14 0
 s    3 1.00
  0.3387000000D+02  0.2549486324D-01
  0.5095000000D+01  0.1903627659D+00
  0.1159000000D+01  0.8521620222D+00
 s    1 1.00
  0.3258000000D+00  0.1000000000D+01
 s    1 1.00
  0.1027000000D+00  0.1000000000D+01
 p    1 1.00
  0.1407000000D+01  0.1000000000D+01
 p    1 1.00
  0.3880000000D+00  0.1000000000D+01
 d    1 1.00
  0.1057000000D+01  0.1000000000D+01
  
 15 0
 s    3 1.00
  0.3387000000D+02  0.2549486324D-01
  0.5095000000D+01  0.1903627659D+00
  0.1159000000D+01  0.8521620222D+00
 s    1 1.00
  0.3258000000D+00  0.1000000000D+01
 s    1 1.00
  0.1027000000D+00  0.1000000000D+01
 p    1 1.00
  0.1407000000D+01  0.1000000000D+01
 p    1 1.00
  0.3880000000D+00  0.1000000000D+01
 d    1 1.00
  0.1057000000D+01  0.1000000000D+01
 

[MO]
 Ene=   -20.5898
 Spin= Alpha
 Occup=   2.000000
   1  -0.000096
   2  -0.000018
   3   0.000002
   4  -0.000047
   5   0.000004
   6  -0.000008
   7   0.000005
   8  -0.000054
   9   0.000054
  10  -0.000044
  11  -0.000093
  12   0.000160
  13  -0.000036
  14   0.000002
  15  -0.000003
  16   0.000001
  17  -0.000004
  18   0.000001
  19   0.000005
  20  -0.000024
  21  -0.000019
  22   0.000043
  23   0.000042
  24   0.000015
  25  -0.000036
  26   0.000003
  27  -0.000005
  28  -0.000007
  29  -0.000006
  30   0.000003
  31   0.000004
  32   0.000002
  33   0.000004
  34   0.000005
  35  -0.000002
  36  -0.000005
  37  -0.000096
  38  -0.000092
  39   0.000000
  40   0.000010
  41  -0.000010
  42  -0.000044
  43  -0.000039
  44  -0.000088
  45   0.000001
  46   0.000011
  47  -0.000012
  48  -0.000001
  49  -0.000021
  50  -0.000011
  51  -0.000004
  52   0.000243
  53   0.000065
  54  -0.000010
  55   0.000013
  56   0.000005
  57  -0.000075
  58   0.000096
  59  -0.000011
  60  -0.000000
  61   0.000014
  62  -0.000014
  63  -0.000020
  64   0.000002
  65  -0.000004
  66  -0.000020
  67  -0.000013
  68   0.000003
  69   0.000146
  70   0.000001
  71  -0.000001
  72   0.000003
  73  -0.000003
  74   0.000006
  75  -0.000023
  76   0.000033
  77   0.000022
  78  -0.000037
  79  -0.000001
  80  -0.000000
  81   0.000001
  82  -0.000001
  83   0.000000
  84   0.000000
  85   0.000001
  86  -0.000003
  87   0.000002
  88  -0.000001
  89  -0.000009
  90  -0.000002
  91   0.000000
  92  -0.000001
  93  -0.000000
  94  -0.000002
  95   0.000002
  96  -0.000000
  97   0.000002
  98   0.000000
  99   0.000001
 100  -0.000001
 101  -0.000002
 102  -0.000078
 103  -0.000039
 104  -0.000003
 105   0.000002
 106   0.000000
 107   0.000025
 108  -0.000012
 109  -0.000048
 110   0.000004
 111   0.000003
 112  -0.000007
 113   0.000001
 114   0.000004
 115  -0.000003
 116   0.000004
 117  -0.000051
 118   0.000039
 119  -0.000004
 120   0.000003
 121   0.000000
 122  -0.000003
 123   0.000003
 124  -0.000002
 125  -0.000000
 126  -0.000001
 127   0.000002
 128  -0.000000
 129  -0.000001
 130   0.000001
 131   0.975820
 132  -0.000714
 133   0.043493
 134   0.001592
 135   0.000675
 136   0.000299
 137   0.001428
 138  -0.000598
 139  -0.000203
 140  -0.001160
 141  -0.000156
 142   0.000010
 143  -0.000014
 144   0.000023
 145  -0.000039
 146   0.000015
 147   0.000004
 148  -0.000009
 149   0.000008
 150  -0.000352
 151   0.000468
 152  -0.000116
 153  -0.000010
 154   0.000126
 155  -0.000079
 156  -0.000086
 157   0.000022
 158  -0.000017
 159   0.000033
 160  -0.000014
 161  -0.000035
 162   0.000082
 163  -0.000016
 164   0.000057
 165   0.000006
 166   0.000438
 167   0.000990
 168  -0.000196
 169  -0.000304
 170  -0.000007
 171  -0.000032
 172  -0.000563
 173  -0.000015
 174  -0.000087
 175  -0.000009
 176  -0.000004
 177   0.000013
 178  -0.000015
 179  -0.000052
 180  -0.000000
 181   0.000452
 182   0.000859
 183  -0.000473
 184   0.000154
 185  -0.000018
 186  -0.000238
 187   0.000215
 188   0.000003
 189  -0.000389
 190   0.000055
 191   0.000021
 192  -0.000076
 193   0.000012
 194   0.000035
 195  -0.000022
 196  -0.000025
 197   0.000005
 198  -0.000004
 199   0.000006
 200  -0.000000
 201  -0.000001
 202   0.000001
 203   0.000003
 204   0.000004
 205  -0.000007
 206   0.000002
 207  -0.000006
 208  -0.000014
 209  -0.000000
 210  -0.000000
 211   0.000000
 212   0.000001
 213   0.000000
 214  -0.000000
 215  -0.000001
 216  -0.000001
 217   0.000002
 218  -0.000006
 219  -0.000001
 220   0.000005
 221  -0.000001
 222   0.000000
 223   0.000000
 224  -0.000000
 225   0.000001
 226   0.000001
 227   0.000001
 228  -0.000001
 229  -0.000001
 230   0.000000
 231   0.000003
 232  -0.000031
 233   0.000009
 234   0.000000
 235  -0.000000
 236  -0.000003
 237   0.000004
 238  -0.000003
 239  -0.000006
 240   0.000001
 241   0.000001
 242  -0.000002
 243   0.000001
 244   0.000001
 245  -0.000000
 246   0.000001
 247   0.000008
 248  -0.000011
 249   0.000000
 250   0.000002
 251  -0.000002
 252   0.000002
 253   0.000002
 254   0.000003
 255  -0.000001
 256   0.000001
 257  -0.000000
 258   0.000001
 259   0.000000
 260  -0.000000
 261   0.000020
 262   0.000052
 263  -0.000017
 264   0.000068
 265  -0.000001
 266   0.000006
 267  -0.000004
 268   0.000011
 269  -0.000029
 270   0.000002
 271   0.000032
 272  -0.000007
 273  -0.000085
 274  -0.000001
 275   0.000002
 276  -0.000001
 277  -0.000003
 278  -0.000000
 279  -0.000003
 280   0.000008
 281  -0.000009
 282   0.000001
 283   0.000021
 284   0.000007
 285   0.000026
 286   0.000005
 287   0.000000
 288   0.000000
 289  -0.000001
 290   0.000004
 291   0.000002
 292  -0.000005
 293  -0.000005
 294  -0.000002
 295  -0.000002
 296   0.000012
 297  -0.000175
 298   0.000077
 299  -0.000004
 300  -0.000012
 301  -0.000006
 302   0.000009
 303  -0.000024
 304  -0.000027
 305   0.000003
 306   0.000002
 307  -0.000004
 308   0.000003
 309  -0.000000
 310  -0.000009
 311   0.000012
 312  -0.000135
 313   0.000109
 314   0.000013
 315   0.000001
 316   0.000008
 317   0.000003
 318   0.000013
 319  -0.000025
 320  -0.000002
 321  -0.000001
 322   0.000003
 323  -0.000001
 324   0.000007
 325   0.000001
 Ene=   -20.5880
 Spin= Alpha
 Occup=   2.000000
   1  -0.000248
   2  -0.000076
   3  -0.000009
   4   0.000578
   5  -0.000000
   6   0.000002
   7   0.000004
   8   0.000006
   9  -0.000018
  10  -0.000032
  11   0.000248
  12  -0.000322
  13  -0.000050
  14   0.000002
  15  -0.000003
  16   0.000001
  17   0.000010
  18  -0.000002
  19  -0.000001
  20  -0.000009
  21   0.000024
  22  -0.000016
  23  -0.000085
  24   0.000013
  25   0.000010
  26  -0.000004
  27   0.000000
  28  -0.000002
  29   0.000018
  30  -0.000011
  31   0.000001
  32  -0.000012
  33   0.000011
  34   0.000002
  35   0.000002
  36   0.000010
  37  -0.000197
  38   0.000366
  39  -0.000001
  40  -0.000003
  41  -0.000016
  42  -0.000036
  43   0.000029
  44  -0.000014
  45   0.000003
  46   0.000003
  47  -0.000006
  48  -0.000003
  49  -0.000002
  50   0.000000
  51   0.000001
  52  -0.000423
  53  -0.000654
  54   0.000022
  55  -0.000031
  56   0.000003
  57   0.000017
  58  -0.000018
  59  -0.000058
  60   0.000000
  61  -0.000019
  62   0.000019
  63   0.000034
  64   0.000005
  65  -0.000007
  66   0.000012
  67   0.000036
  68  -0.000009
  69   0.000094
  70  -0.000000
  71  -0.000000
  72  -0.000002
  73  -0.000006
  74   0.000013
  75   0.000004
  76  -0.000078
  77   0.000091
  78  -0.000037
  79   0.000001
  80  -0.000001
  81   0.000000
  82   0.000002
  83   0.000000
  84   0.000001
  85   0.000001
  86   0.000011
  87  -0.000012
  88  -0.000020
  89  -0.000001
  90  -0.000002
  91   0.000002
  92  -0.000000
  93   0.000002
  94  -0.000003
  95   0.000002
  96  -0.000001
  97   0.000000
  98  -0.000002
  99  -0.000001
 100   0.000000
 101   0.000003
 102  -0.000012
 103  -0.000052
 104   0.000002
 105  -0.000001
 106   0.000006
 107   0.000000
 108  -0.000004
 109  -0.000020
 110   0.000000
 111   0.000002
 112  -0.000003
 113   0.000001
 114  -0.000001
 115   0.000001
 116   0.000005
 117  -0.000135
 118  -0.000019
 119  -0.000003
 120   0.000003
 121   0.000001
 122  -0.000035
 123   0.000050
 124   0.000001
 125  -0.000000
 126  -0.000005
 127   0.000005
 128   0.000008
 129  -0.000000
 130  -0.000001
 131   0.000035
 132   0.000012
 133  -0.000004
 134   0.000054
 135   0.000000
 136   0.000000
 137  -0.000000
 138  -0.000000
 139  -0.000001
 140   0.000007
 141   0.000027
 142   0.000009
 143   0.000028
 144  -0.000001
 145   0.000002
 146  -0.000000
 147   0.000001
 148  -0.000001
 149   0.000001
 150   0.000009
 151  -0.000011
 152   0.000002
 153  -0.000000
 154   0.000000
 155  -0.000002
 156   0.000002
 157  -0.000000
 158   0.000000
 159  -0.000001
 160   0.000001
 161   0.000001
 162  -0.000002
 163  -0.000001
 164  -0.000001
 165   0.000001
 166   0.000004
 167  -0.000062
 168   0.000033
 169   0.000006
 170   0.000004
 171  -0.000001
 172   0.000007
 173  -0.000008
 174   0.000004
 175  -0.000001
 176   0.000001
 177   0.000001
 178   0.000001
 179  -0.000001
 180  -0.000000
 181   0.000004
 182  -0.000041
 183  -0.000034
 184  -0.000002
 185  -0.000002
 186   0.000003
 187  -0.000007
 188   0.000011
 189   0.000011
 190   0.000000
 191   0.000002
 192  -0.000002
 193  -0.000000
 194   0.000002
 195  -0.000003
 196   0.975809
 197  -0.000736
 198   0.043495
 199   0.001601
 200  -0.000067
 201  -0.001426
 202  -0.000651
 203   0.000082
 204   0.001096
 205   0.000560
 206  -0.000231
 207   0.000417
 208   0.000035
 209  -0.000031
 210   0.000022
 211   0.000009
 212   0.000026
 213  -0.000027
 214  -0.000001
 215   0.000324
 216  -0.000117
 217  -0.000207
 218  -0.000163
 219   0.000359
 220  -0.000021
 221   0.000006
 222  -0.000002
 223   0.000042
 224   0.000040
 225  -0.000032
 226  -0.000015
 227  -0.000048
 228   0.000035
 229  -0.000042
 230  -0.000054
 231   0.000462
 232   0.000943
 233  -0.000168
 234  -0.000119
 235   0.000075
 236   0.000264
 237  -0.000137
 238   0.000093
 239   0.000527
 240   0.000011
 241  -0.000002
 242  -0.000009
 243   0.000030
 244   0.000002
 245  -0.000066
 246   0.000455
 247   0.000848
 248  -0.000166
 249   0.000091
 250   0.000204
 251  -0.000140
 252   0.000268
 253   0.000347
 254  -0.000235
 255   0.000024
 256  -0.000080
 257   0.000056
 258  -0.000035
 259  -0.000013
 260   0.000033
 261   0.000007
 262   0.000022
 263  -0.000005
 264  -0.000139
 265   0.000000
 266  -0.000004
 267  -0.000004
 268   0.000006
 269   0.000024
 270   0.000024
 271   0.000057
 272   0.000040
 273   0.000034
 274  -0.000001
 275  -0.000000
 276   0.000001
 277   0.000001
 278   0.000002
 279  -0.000000
 280   0.000014
 281  -0.000004
 282  -0.000010
 283  -0.000002
 284  -0.000012
 285  -0.000010
 286   0.000001
 287  -0.000000
 288   0.000000
 289  -0.000001
 290   0.000000
 291  -0.000002
 292   0.000000
 293   0.000000
 294   0.000001
 295   0.000000
 296   0.000004
 297   0.000069
 298   0.000195
 299   0.000000
 300  -0.000000
 301   0.000002
 302  -0.000012
 303   0.000058
 304   0.000049
 305  -0.000002
 306  -0.000001
 307   0.000003
 308  -0.000000
 309   0.000004
 310   0.000003
 311   0.000004
 312  -0.000050
 313  -0.000025
 314   0.000002
 315   0.000002
 316   0.000001
 317   0.000016
 318   0.000007
 319  -0.000001
 320  -0.000003
 321   0.000001
 322   0.000002
 323  -0.000004
 324  -0.000001
 325  -0.000000
 Ene=   -20.5754
 Spin= Alpha
 Occup=   2.000000
   1  -0.007661
   2   0.000043
   3  -0.000361
   4   0.000500
   5  -0.000005
   6   0.000013
   7   0.000013
   8   0.000043
   9  -0.000072
  10  -0.000031
  11  -0.000040
  12  -0.000066
  13  -0.000213
  14  -0.000004
  15  -0.000001
  16   0.000004
  17   0.000004
  18  -0.000007
  19   0.000006
  20   0.000014
  21   0.000008
  22  -0.000022
  23  -0.000065
  24   0.000042
  25  -0.000024
  26   0.000000
  27  -0.000001
  28  -0.000002
  29   0.000010
  30  -0.000003
  31  -0.000000
  32  -0.000010
  33   0.000005
  34   0.000003
  35   0.000005
  36   0.000007
  37  -0.000211
  38  -0.000467
  39  -0.000033
  40   0.000019
  41  -0.000009
  42   0.000131
  43  -0.000098
  44  -0.000078
  45  -0.000004
  46   0.000015
  47  -0.000011
  48   0.000012
  49  -0.000008
  50  -0.000005
  51   0.000014
  52  -0.000362
  53   0.000249
  54   0.000010
  55  -0.000014
  56  -0.000010
  57   0.000119
  58  -0.000141
  59   0.000010
  60   0.000000
  61  -0.000011
  62   0.000011
  63   0.000026
  64   0.000004
  65  -0.000006
  66   0.975804
  67  -0.000630
  68   0.043549
  69   0.001320
  70  -0.000293
  71   0.001004
  72  -0.001220
  73   0.000357
  74  -0.000928
  75   0.000798
  76   0.000435
  77  -0.000419
  78   0.000135
  79  -0.000033
  80  -0.000018
  81   0.000051
  82  -0.000024
  83  -0.000040
  84  -0.000012
  85   0.000141
  86  -0.000082
  87  -0.000059
  88   0.000455
  89   0.000183
  90   0.000091
  91  -0.000023
  92   0.000012
  93   0.000021
  94   0.000084
  95  -0.000032
  96  -0.000025
  97  -0.000053
  98   0.000016
  99  -0.000003
 100  -0.000013
 101   0.000502
 102   0.000533
 103  -0.000196
 104  -0.000081
 105   0.000027
 106   0.000147
 107  -0.000204
 108   0.000062
 109   0.000268
 110   0.000080
 111   0.000102
 112  -0.000182
 113  -0.000032
 114   0.000084
 115   0.000041
 116   0.000419
 117   0.001461
 118  -0.000170
 119   0.000220
 120  -0.000246
 121  -0.000028
 122   0.000437
 123  -0.000619
 124  -0.000045
 125   0.000009
 126  -0.000015
 127   0.000006
 128  -0.000019
 129  -0.000043
 130   0.000042
 131   0.000002
 132  -0.000017
 133   0.000007
 134   0.000027
 135  -0.000001
 136  -0.000003
 137  -0.000003
 138   0.000000
 139   0.000011
 140   0.000018
 141  -0.000069
 142  -0.000037
 143  -0.000004
 144   0.000000
 145  -0.000002
 146   0.000001
 147  -0.000002
 148   0.000001
 149   0.000001
 150  -0.000005
 151   0.000004
 152   0.000001
 153   0.000003
 154  -0.000010
 155  -0.000003
 156   0.000000
 157   0.000001
 158  -0.000000
 159   0.000000
 160  -0.000001
 161  -0.000000
 162  -0.000001
 163  -0.000001
 164   0.000001
 165   0.000000
 166  -0.000003
 167   0.000049
 168   0.000015
 169   0.000001
 170  -0.000004
 171   0.000000
 172  -0.000021
 173   0.000013
 174   0.000001
 175   0.000002
 176  -0.000002
 177  -0.000000
 178  -0.000001
 179  -0.000002
 180   0.000000
 181  -0.000005
 182  -0.000022
 183   0.000005
 184   0.000006
 185   0.000002
 186  -0.000001
 187  -0.000025
 188  -0.000000
 189   0.000031
 190   0.000004
 191   0.000002
 192  -0.000005
 193   0.000004
 194   0.000003
 195  -0.000002
 196   0.000026
 197   0.000033
 198  -0.000006
 199  -0.000031
 200   0.000001
 201  -0.000002
 202  -0.000000
 203  -0.000006
 204   0.000010
 205   0.000002
 206   0.000034
 207  -0.000078
 208  -0.000007
 209   0.000001
 210   0.000001
 211  -0.000002
 212  -0.000003
 213   0.000000
 214  -0.000001
 215  -0.000004
 216  -0.000000
 217   0.000005
 218   0.000010
 219  -0.000002
 220   0.000007
 221  -0.000001
 222  -0.000000
 223   0.000000
 224   0.000002
 225  -0.000000
 226   0.000000
 227  -0.000000
 228   0.000001
 229  -0.000001
 230  -0.000000
 231   0.000001
 232  -0.000022
 233  -0.000001
 234   0.000002
 235  -0.000001
 236  -0.000000
 237  -0.000004
 238   0.000009
 239  -0.000006
 240  -0.000001
 241   0.000001
 242  -0.000000
 243  -0.000000
 244   0.000000
 245   0.000001
 246   0.000001
 247  -0.000016
 248  -0.000034
 249   0.000002
 250   0.000001
 251  -0.000002
 252  -0.000010
 253  -0.000005
 254   0.000013
 255   0.000001
 256   0.000000
 257  -0.000001
 258   0.000000
 259   0.000001
 260   0.000002
 261   0.000000
 262  -0.000009
 263   0.000004
 264   0.000023
 265  -0.000001
 266   0.000002
 267  -0.000001
 268   0.000004
 269  -0.000008
 270   0.000003
 271  -0.000010
 272  -0.000004
 273  -0.000018
 274   0.000001
 275  -0.000000
 276  -0.000001
 277   0.000000
 278   0.000000
 279  -0.000001
 280  -0.000005
 281   0.000003
 282   0.000002
 283  -0.000003
 284  -0.000004
 285   0.000001
 286  -0.000001
 287  -0.000000
 288   0.000000
 289   0.000001
 290  -0.000001
 291  -0.000001
 292   0.000001
 293   0.000001
 294   0.000000
 295   0.000001
 296  -0.000006
 297   0.000022
 298   0.000000
 299   0.000004
 300   0.000002
 301   0.000007
 302  -0.000017
 303  -0.000013
 304  -0.000034
 305  -0.000002
 306   0.000001
 307   0.000000
 308  -0.000001
 309  -0.000001
 310   0.000003
 311  -0.000001
 312   0.000011
 313  -0.000006
 314  -0.000002
 315  -0.000001
 316  -0.000000
 317  -0.000002
 318  -0.000002
 319   0.000006
 320   0.000000
 321  -0.000001
 322   0.000000
 323   0.000001
 324  -0.000001
 325  -0.000000
 Ene=   -20.5752
 Spin= Alpha
 Occup=   2.000000
   1   0.975642
   2  -0.000886
   3   0.043620
   4   0.001340
   5   0.000371
   6  -0.000854
   7  -0.001260
   8  -0.000402
   9   0.000802
  10   0.000986
  11   0.000026
  12   0.000247
  13   0.000493
  14  -0.000040
  15  -0.000023
  16   0.000064
  17  -0.000027
  18   0.000019
  19   0.000044
  20   0.000207
  21   0.000071
  22  -0.000279
  23   0.000361
  24  -0.000138
  25  -0.000220
  26   0.000008
  27  -0.000013
  28   0.000026
  29  -0.000045
  30   0.000006
  31  -0.000024
  32   0.000035
  33   0.000011
  34  -0.000010
  35  -0.000029
  36   0.000502
  37   0.001045
  38  -0.000084
  39   0.000109
  40  -0.000046
  41   0.000204
  42   0.000222
  43  -0.000092
  44   0.000494
  45   0.000069
  46   0.000067
  47  -0.000136
  48  -0.000021
  49  -0.000030
  50  -0.000058
  51   0.000432
  52   0.001136
  53  -0.000536
  54  -0.000138
  55   0.000158
  56  -0.000011
  57  -0.000591
  58   0.000690
  59  -0.000044
  60   0.000018
  61  -0.000027
  62   0.000009
  63   0.000007
  64   0.000060
  65  -0.000067
  66   0.007661
  67  -0.000051
  68   0.000344
  69  -0.000103
  70  -0.000007
  71   0.000011
  72  -0.000014
  73   0.000020
  74  -0.000037
  75   0.000031
  76   0.000060
  77  -0.000078
  78  -0.000068
  79   0.000000
  80   0.000002
  81  -0.000003
  82   0.000002
  83   0.000004
  84   0.000001
  85  -0.000006
  86  -0.000020
  87   0.000026
  88   0.000019
  89  -0.000001
  90  -0.000008
  91  -0.000002
  92  -0.000000
  93  -0.000003
  94   0.000004
  95  -0.000003
  96   0.000002
  97  -0.000001
  98   0.000003
  99   0.000002
 100   0.000001
 101   0.000000
 102  -0.000042
 103   0.000053
 104  -0.000009
 105   0.000002
 106  -0.000012
 107   0.000018
 108  -0.000001
 109   0.000048
 110  -0.000005
 111  -0.000008
 112   0.000013
 113  -0.000001
 114  -0.000001
 115  -0.000003
 116  -0.000003
 117   0.000159
 118   0.000021
 119   0.000004
 120  -0.000006
 121  -0.000009
 122   0.000057
 123  -0.000070
 124   0.000032
 125   0.000002
 126   0.000007
 127  -0.000009
 128  -0.000016
 129   0.000003
 130  -0.000001
 131   0.000083
 132  -0.000007
 133   0.000000
 134   0.000174
 135   0.000002
 136   0.000002
 137  -0.000005
 138  -0.000006
 139  -0.000002
 140   0.000028
 141  -0.000007
 142  -0.000042
 143   0.000061
 144  -0.000002
 145   0.000001
 146   0.000001
 147  -0.000003
 148   0.000002
 149   0.000007
 150   0.000014
 151  -0.000019
 152   0.000005
 153   0.000016
 154  -0.000023
 155  -0.000030
 156   0.000006
 157   0.000004
 158   0.000001
 159  -0.000000
 160   0.000000
 161   0.000001
 162  -0.000008
 163  -0.000005
 164  -0.000002
 165   0.000005
 166   0.000004
 167  -0.000076
 168   0.000045
 169   0.000007
 170   0.000001
 171   0.000001
 172   0.000012
 173   0.000002
 174   0.000008
 175  -0.000001
 176   0.000001
 177  -0.000001
 178   0.000001
 179  -0.000005
 180   0.000001
 181   0.000003
 182  -0.000099
 183  -0.000060
 184  -0.000009
 185  -0.000016
 186   0.000012
 187  -0.000011
 188   0.000070
 189   0.000044
 190   0.000008
 191  -0.000002
 192  -0.000006
 193   0.000004
 194   0.000005
 195  -0.000016
 196   0.000137
 197  -0.000121
 198   0.000026
 199   0.000645
 200  -0.000005
 201   0.000015
 202   0.000006
 203   0.000056
 204  -0.000130
 205  -0.000050
 206  -0.000186
 207   0.000196
 208  -0.000180
 209  -0.000001
 210  -0.000008
 211   0.000010
 212   0.000026
 213  -0.000004
 214   0.000005
 215  -0.000022
 216   0.000018
 217   0.000004
 218  -0.000075
 219  -0.000018
 220  -0.000009
 221   0.000004
 222   0.000001
 223  -0.000006
 224  -0.000016
 225   0.000010
 226   0.000003
 227   0.000011
 228  -0.000011
 229   0.000005
 230   0.000006
 231   0.000028
 232  -0.000363
 233   0.000054
 234  -0.000003
 235   0.000003
 236  -0.000023
 237   0.000089
 238  -0.000089
 239  -0.000102
 240   0.000010
 241   0.000009
 242  -0.000019
 243   0.000013
 244   0.000013
 245  -0.000014
 246   0.000018
 247  -0.000152
 248   0.000081
 249  -0.000024
 250  -0.000003
 251  -0.000005
 252   0.000027
 253  -0.000064
 254   0.000051