[Molden Format]
[Atoms] Angs
 O     1  8     3.091999     2.456999    -4.693998
 H     2  1     2.766999     2.488999    -5.593998
 H     3  1     3.701999     1.693999    -4.797998
 O     4  8     1.039000     3.464999    -6.491998
 H     5  1     1.399999     3.464999    -7.360997
 H     6  1     0.435000     4.251998    -6.496998
 O     7  8     4.523998     4.555998    -6.607998
 H     8  1     5.495998     4.595998    -6.435998
 H     9  1     4.073999     4.621998    -5.746998
 O    10  8     4.915998     0.165000    -4.626998
 H    11  1     5.243998    -0.138000    -5.506998
 H    12  1     4.540998    -0.631000    -4.200998
 O    13  8     3.359999     3.870999    -2.602999
 H    14  1     3.247999     3.239999    -3.342999
 H    15  1     4.272998     4.206998    -2.738999
[GTO]
  1 0
 s    8 1.00
  0.1533000000D+05  0.5201983070D-03
  0.2299000000D+04  0.4023344781D-02
  0.5224000000D+03  0.2072908333D-01
  0.1473000000D+03  0.8108232708D-01
  0.4755000000D+02  0.2362263521D+00
  0.1676000000D+02  0.4435182094D+00
  0.6207000000D+01  0.3586705887D+00
  0.6882000000D+00 -0.8349797237D-02
 s    8 1.00
  0.1533000000D+05 -0.1972360120D-03
  0.2299000000D+04 -0.1535010700D-02
  0.5224000000D+03 -0.7951183914D-02
  0.1473000000D+03 -0.3211345289D-01
  0.4755000000D+02 -0.1002696430D+00
  0.1676000000D+02 -0.2340471118D+00
  0.6207000000D+01 -0.3014109278D+00
  0.6882000000D+00  0.1034919650D+01
 s    1 1.00
  0.1752000000D+01  0.1000000000D+01
 s    1 1.00
  0.2384000000D+00  0.1000000000D+01
 p    3 1.00
  0.3446000000D+02  0.4116348957D-01
  0.7749000000D+01  0.2577628359D+00
  0.2280000000D+01  0.8024192744D+00
 p    1 1.00
  0.7156000000D+00  0.1000000000D+01
 p    1 1.00
  0.2140000000D+00  0.1000000000D+01
 d    1 1.00
  0.2314000000D+01  0.1000000000D+01
 d    1 1.00
  0.6450000000D+00  0.1000000000D+01
 f    1 1.00
  0.1428000000D+01  0.1000000000D+01
  
  2 0
 s    3 1.00
  0.3387000000D+02  0.2549486324D-01
  0.5095000000D+01  0.1903627659D+00
  0.1159000000D+01  0.8521620222D+00
 s    1 1.00
  0.3258000000D+00  0.1000000000D+01
 s    1 1.00
  0.1027000000D+00  0.1000000000D+01
 p    1 1.00
  0.1407000000D+01  0.1000000000D+01
 p    1 1.00
  0.3880000000D+00  0.1000000000D+01
 d    1 1.00
  0.1057000000D+01  0.1000000000D+01
  
  3 0
 s    3 1.00
  0.3387000000D+02  0.2549486324D-01
  0.5095000000D+01  0.1903627659D+00
  0.1159000000D+01  0.8521620222D+00
 s    1 1.00
  0.3258000000D+00  0.1000000000D+01
 s    1 1.00
  0.1027000000D+00  0.1000000000D+01
 p    1 1.00
  0.1407000000D+01  0.1000000000D+01
 p    1 1.00
  0.3880000000D+00  0.1000000000D+01
 d    1 1.00
  0.1057000000D+01  0.1000000000D+01
  
  4 0
 s    8 1.00
  0.1533000000D+05  0.5201983070D-03
  0.2299000000D+04  0.4023344781D-02
  0.5224000000D+03  0.2072908333D-01
  0.1473000000D+03  0.8108232708D-01
  0.4755000000D+02  0.2362263521D+00
  0.1676000000D+02  0.4435182094D+00
  0.6207000000D+01  0.3586705887D+00
  0.6882000000D+00 -0.8349797237D-02
 s    8 1.00
  0.1533000000D+05 -0.1972360120D-03
  0.2299000000D+04 -0.1535010700D-02
  0.5224000000D+03 -0.7951183914D-02
  0.1473000000D+03 -0.3211345289D-01
  0.4755000000D+02 -0.1002696430D+00
  0.1676000000D+02 -0.2340471118D+00
  0.6207000000D+01 -0.3014109278D+00
  0.6882000000D+00  0.1034919650D+01
 s    1 1.00
  0.1752000000D+01  0.1000000000D+01
 s    1 1.00
  0.2384000000D+00  0.1000000000D+01
 p    3 1.00
  0.3446000000D+02  0.4116348957D-01
  0.7749000000D+01  0.2577628359D+00
  0.2280000000D+01  0.8024192744D+00
 p    1 1.00
  0.7156000000D+00  0.1000000000D+01
 p    1 1.00
  0.2140000000D+00  0.1000000000D+01
 d    1 1.00
  0.2314000000D+01  0.1000000000D+01
 d    1 1.00
  0.6450000000D+00  0.1000000000D+01
 f    1 1.00
  0.1428000000D+01  0.1000000000D+01
  
  5 0
 s    3 1.00
  0.3387000000D+02  0.2549486324D-01
  0.5095000000D+01  0.1903627659D+00
  0.1159000000D+01  0.8521620222D+00
 s    1 1.00
  0.3258000000D+00  0.1000000000D+01
 s    1 1.00
  0.1027000000D+00  0.1000000000D+01
 p    1 1.00
  0.1407000000D+01  0.1000000000D+01
 p    1 1.00
  0.3880000000D+00  0.1000000000D+01
 d    1 1.00
  0.1057000000D+01  0.1000000000D+01
  
  6 0
 s    3 1.00
  0.3387000000D+02  0.2549486324D-01
  0.5095000000D+01  0.1903627659D+00
  0.1159000000D+01  0.8521620222D+00
 s    1 1.00
  0.3258000000D+00  0.1000000000D+01
 s    1 1.00
  0.1027000000D+00  0.1000000000D+01
 p    1 1.00
  0.1407000000D+01  0.1000000000D+01
 p    1 1.00
  0.3880000000D+00  0.1000000000D+01
 d    1 1.00
  0.1057000000D+01  0.1000000000D+01
  
  7 0
 s    8 1.00
  0.1533000000D+05  0.5201983070D-03
  0.2299000000D+04  0.4023344781D-02
  0.5224000000D+03  0.2072908333D-01
  0.1473000000D+03  0.8108232708D-01
  0.4755000000D+02  0.2362263521D+00
  0.1676000000D+02  0.4435182094D+00
  0.6207000000D+01  0.3586705887D+00
  0.6882000000D+00 -0.8349797237D-02
 s    8 1.00
  0.1533000000D+05 -0.1972360120D-03
  0.2299000000D+04 -0.1535010700D-02
  0.5224000000D+03 -0.7951183914D-02
  0.1473000000D+03 -0.3211345289D-01
  0.4755000000D+02 -0.1002696430D+00
  0.1676000000D+02 -0.2340471118D+00
  0.6207000000D+01 -0.3014109278D+00
  0.6882000000D+00  0.1034919650D+01
 s    1 1.00
  0.1752000000D+01  0.1000000000D+01
 s    1 1.00
  0.2384000000D+00  0.1000000000D+01
 p    3 1.00
  0.3446000000D+02  0.4116348957D-01
  0.7749000000D+01  0.2577628359D+00
  0.2280000000D+01  0.8024192744D+00
 p    1 1.00
  0.7156000000D+00  0.1000000000D+01
 p    1 1.00
  0.2140000000D+00  0.1000000000D+01
 d    1 1.00
  0.2314000000D+01  0.1000000000D+01
 d    1 1.00
  0.6450000000D+00  0.1000000000D+01
 f    1 1.00
  0.1428000000D+01  0.1000000000D+01
  
  8 0
 s    3 1.00
  0.3387000000D+02  0.2549486324D-01
  0.5095000000D+01  0.1903627659D+00
  0.1159000000D+01  0.8521620222D+00
 s    1 1.00
  0.3258000000D+00  0.1000000000D+01
 s    1 1.00
  0.1027000000D+00  0.1000000000D+01
 p    1 1.00
  0.1407000000D+01  0.1000000000D+01
 p    1 1.00
  0.3880000000D+00  0.1000000000D+01
 d    1 1.00
  0.1057000000D+01  0.1000000000D+01
  
  9 0
 s    3 1.00
  0.3387000000D+02  0.2549486324D-01
  0.5095000000D+01  0.1903627659D+00
  0.1159000000D+01  0.8521620222D+00
 s    1 1.00
  0.3258000000D+00  0.1000000000D+01
 s    1 1.00
  0.1027000000D+00  0.1000000000D+01
 p    1 1.00
  0.1407000000D+01  0.1000000000D+01
 p    1 1.00
  0.3880000000D+00  0.1000000000D+01
 d    1 1.00
  0.1057000000D+01  0.1000000000D+01
  
 10 0
 s    8 1.00
  0.1533000000D+05  0.5201983070D-03
  0.2299000000D+04  0.4023344781D-02
  0.5224000000D+03  0.2072908333D-01
  0.1473000000D+03  0.8108232708D-01
  0.4755000000D+02  0.2362263521D+00
  0.1676000000D+02  0.4435182094D+00
  0.6207000000D+01  0.3586705887D+00
  0.6882000000D+00 -0.8349797237D-02
 s    8 1.00
  0.1533000000D+05 -0.1972360120D-03
  0.2299000000D+04 -0.1535010700D-02
  0.5224000000D+03 -0.7951183914D-02
  0.1473000000D+03 -0.3211345289D-01
  0.4755000000D+02 -0.1002696430D+00
  0.1676000000D+02 -0.2340471118D+00
  0.6207000000D+01 -0.3014109278D+00
  0.6882000000D+00  0.1034919650D+01
 s    1 1.00
  0.1752000000D+01  0.1000000000D+01
 s    1 1.00
  0.2384000000D+00  0.1000000000D+01
 p    3 1.00
  0.3446000000D+02  0.4116348957D-01
  0.7749000000D+01  0.2577628359D+00
  0.2280000000D+01  0.8024192744D+00
 p    1 1.00
  0.7156000000D+00  0.1000000000D+01
 p    1 1.00
  0.2140000000D+00  0.1000000000D+01
 d    1 1.00
  0.2314000000D+01  0.1000000000D+01
 d    1 1.00
  0.6450000000D+00  0.1000000000D+01
 f    1 1.00
  0.1428000000D+01  0.1000000000D+01
  
 11 0
 s    3 1.00
  0.3387000000D+02  0.2549486324D-01
  0.5095000000D+01  0.1903627659D+00
  0.1159000000D+01  0.8521620222D+00
 s    1 1.00
  0.3258000000D+00  0.1000000000D+01
 s    1 1.00
  0.1027000000D+00  0.1000000000D+01
 p    1 1.00
  0.1407000000D+01  0.1000000000D+01
 p    1 1.00
  0.3880000000D+00  0.1000000000D+01
 d    1 1.00
  0.1057000000D+01  0.1000000000D+01
  
 12 0
 s    3 1.00
  0.3387000000D+02  0.2549486324D-01
  0.5095000000D+01  0.1903627659D+00
  0.1159000000D+01  0.8521620222D+00
 s    1 1.00
  0.3258000000D+00  0.1000000000D+01
 s    1 1.00
  0.1027000000D+00  0.1000000000D+01
 p    1 1.00
  0.1407000000D+01  0.1000000000D+01
 p    1 1.00
  0.3880000000D+00  0.1000000000D+01
 d    1 1.00
  0.1057000000D+01  0.1000000000D+01
  
 13 0
 s    8 1.00
  0.1533000000D+05  0.5201983070D-03
  0.2299000000D+04  0.4023344781D-02
  0.5224000000D+03  0.2072908333D-01
  0.1473000000D+03  0.8108232708D-01
  0.4755000000D+02  0.2362263521D+00
  0.1676000000D+02  0.4435182094D+00
  0.6207000000D+01  0.3586705887D+00
  0.6882000000D+00 -0.8349797237D-02
 s    8 1.00
  0.1533000000D+05 -0.1972360120D-03
  0.2299000000D+04 -0.1535010700D-02
  0.5224000000D+03 -0.7951183914D-02
  0.1473000000D+03 -0.3211345289D-01
  0.4755000000D+02 -0.1002696430D+00
  0.1676000000D+02 -0.2340471118D+00
  0.6207000000D+01 -0.3014109278D+00
  0.6882000000D+00  0.1034919650D+01
 s    1 1.00
  0.1752000000D+01  0.1000000000D+01
 s    1 1.00
  0.2384000000D+00  0.1000000000D+01
 p    3 1.00
  0.3446000000D+02  0.4116348957D-01
  0.7749000000D+01  0.2577628359D+00
  0.2280000000D+01  0.8024192744D+00
 p    1 1.00
  0.7156000000D+00  0.1000000000D+01
 p    1 1.00
  0.2140000000D+00  0.1000000000D+01
 d    1 1.00
  0.2314000000D+01  0.1000000000D+01
 d    1 1.00
  0.6450000000D+00  0.1000000000D+01
 f    1 1.00
  0.1428000000D+01  0.1000000000D+01
  
 14 0
 s    3 1.00
  0.3387000000D+02  0.2549486324D-01
  0.5095000000D+01  0.1903627659D+00
  0.1159000000D+01  0.8521620222D+00
 s    1 1.00
  0.3258000000D+00  0.1000000000D+01
 s    1 1.00
  0.1027000000D+00  0.1000000000D+01
 p    1 1.00
  0.1407000000D+01  0.1000000000D+01
 p    1 1.00
  0.3880000000D+00  0.1000000000D+01
 d    1 1.00
  0.1057000000D+01  0.1000000000D+01
  
 15 0
 s    3 1.00
  0.3387000000D+02  0.2549486324D-01
  0.5095000000D+01  0.1903627659D+00
  0.1159000000D+01  0.8521620222D+00
 s    1 1.00
  0.3258000000D+00  0.1000000000D+01
 s    1 1.00
  0.1027000000D+00  0.1000000000D+01
 p    1 1.00
  0.1407000000D+01  0.1000000000D+01
 p    1 1.00
  0.3880000000D+00  0.1000000000D+01
 d    1 1.00
  0.1057000000D+01  0.1000000000D+01
 

[MO]
 Ene=   -20.5746
 Spin= Alpha
 Occup=   2.000000
   1  -0.000553
   2  -0.000076
   3  -0.000023
   4   0.000589
   5  -0.000000
   6   0.000002
   7   0.000004
   8   0.000007
   9  -0.000020
  10  -0.000032
  11   0.000251
  12  -0.000327
  13  -0.000051
  14   0.000002
  15  -0.000003
  16   0.000001
  17   0.000010
  18  -0.000002
  19  -0.000001
  20  -0.000009
  21   0.000025
  22  -0.000016
  23  -0.000087
  24   0.000014
  25   0.000010
  26  -0.000004
  27  -0.000000
  28  -0.000002
  29   0.000018
  30  -0.000011
  31   0.000001
  32  -0.000012
  33   0.000011
  34   0.000002
  35   0.000002
  36   0.000009
  37  -0.000199
  38   0.000369
  39  -0.000001
  40  -0.000003
  41  -0.000017
  42  -0.000037
  43   0.000029
  44  -0.000015
  45   0.000003
  46   0.000003
  47  -0.000006
  48  -0.000004
  49  -0.000002
  50   0.000000
  51   0.000001
  52  -0.000432
  53  -0.000663
  54   0.000022
  55  -0.000032
  56   0.000003
  57   0.000020
  58  -0.000020
  59  -0.000059
  60  -0.000000
  61  -0.000019
  62   0.000019
  63   0.000035
  64   0.000005
  65  -0.000007
  66   0.000013
  67   0.000036
  68  -0.000009
  69   0.000095
  70  -0.000000
  71  -0.000000
  72  -0.000002
  73  -0.000006
  74   0.000013
  75   0.000004
  76  -0.000078
  77   0.000092
  78  -0.000037
  79   0.000001
  80  -0.000001
  81   0.000001
  82   0.000002
  83   0.000000
  84   0.000001
  85   0.000001
  86   0.000011
  87  -0.000012
  88  -0.000020
  89  -0.000001
  90  -0.000002
  91   0.000002
  92  -0.000000
  93   0.000002
  94  -0.000003
  95   0.000002
  96  -0.000001
  97   0.000000
  98  -0.000002
  99  -0.000001
 100   0.000000
 101   0.000003
 102  -0.000012
 103  -0.000052
 104   0.000002
 105  -0.000001
 106   0.000006
 107   0.000000
 108  -0.000004
 109  -0.000020
 110   0.000001
 111   0.000002
 112  -0.000003
 113   0.000001
 114  -0.000001
 115   0.000001
 116   0.000005
 117  -0.000136
 118  -0.000019
 119  -0.000003
 120   0.000003
 121   0.000001
 122  -0.000035
 123   0.000051
 124   0.000001
 125  -0.000000
 126  -0.000005
 127   0.000005
 128   0.000008
 129  -0.000000
 130  -0.000001
 131  -0.000018
 132   0.000012
 133  -0.000006
 134   0.000054
 135   0.000000
 136   0.000000
 137  -0.000001
 138  -0.000000
 139  -0.000001
 140   0.000008
 141   0.000027
 142   0.000009
 143   0.000028
 144  -0.000001
 145   0.000002
 146  -0.000000
 147   0.000001
 148  -0.000001
 149   0.000001
 150   0.000009
 151  -0.000012
 152   0.000003
 153  -0.000000
 154   0.000000
 155  -0.000002
 156   0.000002
 157  -0.000000
 158   0.000000
 159  -0.000001
 160   0.000001
 161   0.000001
 162  -0.000002
 163  -0.000001
 164  -0.000001
 165   0.000001
 166   0.000004
 167  -0.000062
 168   0.000033
 169   0.000006
 170   0.000004
 171  -0.000001
 172   0.000007
 173  -0.000008
 174   0.000004
 175  -0.000001
 176   0.000001
 177   0.000001
 178   0.000001
 179  -0.000001
 180  -0.000000
 181   0.000004
 182  -0.000041
 183  -0.000034
 184  -0.000002
 185  -0.000002
 186   0.000003
 187  -0.000008
 188   0.000011
 189   0.000011
 190   0.000000
 191   0.000002
 192  -0.000002
 193  -0.000000
 194   0.000002
 195  -0.000003
 196   0.975793
 197  -0.000734
 198   0.043524
 199   0.001632
 200  -0.000076
 201  -0.001397
 202  -0.000677
 203   0.000081
 204   0.001066
 205   0.000588
 206  -0.000244
 207   0.000412
 208   0.000041
 209  -0.000033
 210   0.000025
 211   0.000008
 212   0.000030
 213  -0.000028
 214  -0.000004
 215   0.000320
 216  -0.000105
 217  -0.000215
 218  -0.000156
 219   0.000357
 220  -0.000034
 221   0.000008
 222  -0.000003
 223   0.000043
 224   0.000038
 225  -0.000032
 226  -0.000017
 227  -0.000048
 228   0.000036
 229  -0.000040
 230  -0.000053
 231   0.000465
 232   0.000954
 233  -0.000168
 234  -0.000121
 235   0.000077
 236   0.000267
 237  -0.000139
 238   0.000096
 239   0.000533
 240   0.000012
 241  -0.000001
 242  -0.000010
 243   0.000029
 244   0.000001
 245  -0.000064
 246   0.000450
 247   0.000805
 248  -0.000166
 249   0.000088
 250   0.000200
 251  -0.000138
 252   0.000260
 253   0.000332
 254  -0.000227
 255   0.000024
 256  -0.000081
 257   0.000058
 258  -0.000038
 259  -0.000011
 260   0.000034
 261   0.000009
 262   0.000022
 263  -0.000005
 264  -0.000140
 265   0.000000
 266  -0.000004
 267  -0.000004
 268   0.000006
 269   0.000024
 270   0.000024
 271   0.000057
 272   0.000040
 273   0.000034
 274  -0.000001
 275  -0.000000
 276   0.000001
 277   0.000001
 278   0.000002
 279  -0.000000
 280   0.000014
 281  -0.000004
 282  -0.000010
 283  -0.000002
 284  -0.000013
 285  -0.000010
 286   0.000001
 287  -0.000000
 288   0.000000
 289  -0.000001
 290   0.000000
 291  -0.000002
 292   0.000000
 293   0.000000
 294   0.000001
 295   0.000000
 296   0.000004
 297   0.000070
 298   0.000197
 299   0.000001
 300  -0.000000
 301   0.000002
 302  -0.000012
 303   0.000058
 304   0.000050
 305  -0.000002
 306  -0.000001
 307   0.000003
 308  -0.000000
 309   0.000004
 310   0.000003
 311   0.000004
 312  -0.000051
 313  -0.000025
 314   0.000002
 315   0.000002
 316   0.000001
 317   0.000016
 318   0.000008
 319  -0.000001
 320  -0.000003
 321   0.000001
 322   0.000002
 323  -0.000004
 324  -0.000001
 325  -0.000000
 Ene=   -20.5726
 Spin= Alpha
 Occup=   2.000000
   1  -0.000403
   2  -0.000018
   3  -0.000012
   4  -0.000058
   5   0.000004
   6  -0.000008
   7   0.000006
   8  -0.000054
   9   0.000056
  10  -0.000044
  11  -0.000097
  12   0.000162
  13  -0.000032
  14   0.000002
  15  -0.000003
  16   0.000001
  17  -0.000004
  18   0.000001
  19   0.000005
  20  -0.000024
  21  -0.000019
  22   0.000043
  23   0.000043
  24   0.000015
  25  -0.000037
  26   0.000003
  27  -0.000005
  28  -0.000007
  29  -0.000006
  30   0.000003
  31   0.000005
  32   0.000002
  33   0.000004
  34   0.000005
  35  -0.000002
  36  -0.000005
  37  -0.000091
  38  -0.000096
  39   0.000001
  40   0.000010
  41  -0.000010
  42  -0.000043
  43  -0.000040
  44  -0.000087
  45   0.000001
  46   0.000010
  47  -0.000012
  48  -0.000001
  49  -0.000021
  50  -0.000011
  51  -0.000005
  52   0.000252
  53   0.000066
  54  -0.000010
  55   0.000013
  56   0.000005
  57  -0.000077
  58   0.000100
  59  -0.000011
  60  -0.000000
  61   0.000014
  62  -0.000014
  63  -0.000020
  64   0.000002
  65  -0.000004
  66  -0.000023
  67  -0.000014
  68   0.000003
  69   0.000144
  70   0.000001
  71  -0.000001
  72   0.000003
  73  -0.000003
  74   0.000006
  75  -0.000023
  76   0.000034
  77   0.000021
  78  -0.000036
  79  -0.000001
  80  -0.000000
  81   0.000001
  82  -0.000001
  83   0.000000
  84   0.000000
  85   0.000001
  86  -0.000003
  87   0.000002
  88  -0.000001
  89  -0.000008
  90  -0.000002
  91   0.000000
  92  -0.000001
  93  -0.000000
  94  -0.000002
  95   0.000002
  96  -0.000000
  97   0.000002
  98   0.000000
  99   0.000001
 100  -0.000001
 101  -0.000002
 102  -0.000077
 103  -0.000039
 104  -0.000003
 105   0.000002
 106   0.000000
 107   0.000025
 108  -0.000012
 109  -0.000047
 110   0.000004
 111   0.000003
 112  -0.000007
 113   0.000001
 114   0.000004
 115  -0.000003
 116   0.000004
 117  -0.000050
 118   0.000039
 119  -0.000004
 120   0.000003
 121   0.000000
 122  -0.000002
 123   0.000002
 124  -0.000002
 125  -0.000000
 126  -0.000001
 127   0.000002
 128  -0.000000
 129  -0.000001
 130   0.000001
 131   0.975800
 132  -0.000709
 133   0.043531
 134   0.001580
 135   0.000662
 136   0.000250
 137   0.001442
 138  -0.000580
 139  -0.000170
 140  -0.001175
 141  -0.000152
 142  -0.000003
 143  -0.000016
 144   0.000024
 145  -0.000037
 146   0.000012
 147   0.000005
 148  -0.000006
 149   0.000007
 150  -0.000344
 151   0.000469
 152  -0.000125
 153  -0.000006
 154   0.000134
 155  -0.000076
 156  -0.000086
 157   0.000020
 158  -0.000018
 159   0.000032
 160  -0.000012
 161  -0.000035
 162   0.000083
 163  -0.000015
 164   0.000059
 165   0.000005
 166   0.000436
 167   0.000980
 168  -0.000196
 169  -0.000301
 170  -0.000009
 171  -0.000031
 172  -0.000559
 173  -0.000017
 174  -0.000088
 175  -0.000010
 176  -0.000004
 177   0.000014
 178  -0.000011
 179  -0.000053
 180  -0.000000
 181   0.000455
 182   0.000879
 183  -0.000470
 184   0.000155
 185  -0.000020
 186  -0.000240
 187   0.000220
 188   0.000000
 189  -0.000398
 190   0.000055
 191   0.000021
 192  -0.000076
 193   0.000010
 194   0.000035
 195  -0.000019
 196   0.000029
 197   0.000005
 198  -0.000001
 199   0.000007
 200  -0.000000
 201  -0.000001
 202   0.000001
 203   0.000003
 204   0.000003
 205  -0.000007
 206   0.000002
 207  -0.000007
 208  -0.000014
 209  -0.000000
 210  -0.000000
 211   0.000000
 212   0.000001
 213   0.000000
 214  -0.000000
 215  -0.000001
 216  -0.000001
 217   0.000002
 218  -0.000006
 219  -0.000002
 220   0.000005
 221  -0.000000
 222   0.000000
 223   0.000000
 224  -0.000001
 225   0.000001
 226   0.000001
 227   0.000001
 228  -0.000001
 229  -0.000001
 230   0.000000
 231   0.000003
 232  -0.000031
 233   0.000009
 234   0.000000
 235  -0.000000
 236  -0.000003
 237   0.000004
 238  -0.000003
 239  -0.000006
 240   0.000001
 241   0.000001
 242  -0.000002
 243   0.000001
 244   0.000001
 245  -0.000000
 246   0.000001
 247   0.000007
 248  -0.000011
 249   0.000000
 250   0.000002
 251  -0.000002
 252   0.000002
 253   0.000001
 254   0.000004
 255  -0.000001
 256   0.000001
 257  -0.000000
 258   0.000001
 259   0.000000
 260  -0.000000
 261   0.000021
 262   0.000052
 263  -0.000016
 264   0.000070
 265  -0.000001
 266   0.000006
 267  -0.000004
 268   0.000011
 269  -0.000029
 270   0.000002
 271   0.000032
 272  -0.000008
 273  -0.000085
 274  -0.000001
 275   0.000002
 276  -0.000001
 277  -0.000003
 278  -0.000000
 279  -0.000003
 280   0.000008
 281  -0.000009
 282   0.000001
 283   0.000021
 284   0.000007
 285   0.000026
 286   0.000005
 287   0.000000
 288   0.000000
 289  -0.000001
 290   0.000004
 291   0.000002
 292  -0.000005
 293  -0.000005
 294  -0.000002
 295  -0.000002
 296   0.000012
 297  -0.000175
 298   0.000076
 299  -0.000004
 300  -0.000012
 301  -0.000005
 302   0.000010
 303  -0.000024
 304  -0.000029
 305   0.000003
 306   0.000002
 307  -0.000004
 308   0.000003
 309  -0.000000
 310  -0.000009
 311   0.000012
 312  -0.000135
 313   0.000108
 314   0.000013
 315   0.000001
 316   0.000007
 317   0.000003
 318   0.000013
 319  -0.000025
 320  -0.000002
 321  -0.000001
 322   0.000003
 323  -0.000001
 324   0.000007
 325   0.000001
 Ene=   -20.5693
 Spin= Alpha
 Occup=   2.000000
   1   0.975670
   2  -0.000888
   3   0.043623
   4   0.001329
   5   0.000370
   6  -0.000860
   7  -0.001263
   8  -0.000403
   9   0.000808
  10   0.000989
  11   0.000025
  12   0.000248
  13   0.000496
  14  -0.000040
  15  -0.000023
  16   0.000063
  17  -0.000027
  18   0.000019
  19   0.000044
  20   0.000208
  21   0.000071
  22  -0.000278
  23   0.000363
  24  -0.000138
  25  -0.000220
  26   0.000008
  27  -0.000013
  28   0.000026
  29  -0.000046
  30   0.000006
  31  -0.000024
  32   0.000035
  33   0.000010
  34  -0.000010
  35  -0.000029
  36   0.000502
  37   0.001050
  38  -0.000081
  39   0.000110
  40  -0.000046
  41   0.000205
  42   0.000221
  43  -0.000092
  44   0.000496
  45   0.000069
  46   0.000067
  47  -0.000136
  48  -0.000022
  49  -0.000030
  50  -0.000059
  51   0.000432
  52   0.001144
  53  -0.000538
  54  -0.000138
  55   0.000159
  56  -0.000011
  57  -0.000594
  58   0.000693
  59  -0.000044
  60   0.000018
  61  -0.000026
  62   0.000008
  63   0.000006
  64   0.000060
  65  -0.000067
  66  -0.000260
  67  -0.000046
  68  -0.000010
  69  -0.000113
  70  -0.000005
  71   0.000003
  72  -0.000005
  73   0.000017
  74  -0.000030
  75   0.000024
  76   0.000056
  77  -0.000075
  78  -0.000069
  79   0.000001
  80   0.000002
  81  -0.000003
  82   0.000002
  83   0.000004
  84   0.000001
  85  -0.000007
  86  -0.000020
  87   0.000027
  88   0.000016
  89  -0.000003
  90  -0.000009
  91  -0.000002
  92  -0.000000
  93  -0.000003
  94   0.000004
  95  -0.000003
  96   0.000003
  97  -0.000000
  98   0.000003
  99   0.000002
 100   0.000001
 101  -0.000004
 102  -0.000046
 103   0.000054
 104  -0.000009
 105   0.000002
 106  -0.000014
 107   0.000020
 108  -0.000002
 109   0.000046
 110  -0.000006
 111  -0.000009
 112   0.000015
 113  -0.000001
 114  -0.000002
 115  -0.000003
 116  -0.000007
 117   0.000147
 118   0.000022
 119   0.000003
 120  -0.000004
 121  -0.000009
 122   0.000053
 123  -0.000064
 124   0.000033
 125   0.000002
 126   0.000007
 127  -0.000009
 128  -0.000016
 129   0.000003
 130  -0.000002
 131   0.000390
 132  -0.000007
 133   0.000014
 134   0.000175
 135   0.000002
 136   0.000002
 137  -0.000005
 138  -0.000006
 139  -0.000002
 140   0.000028
 141  -0.000006
 142  -0.000042
 143   0.000061
 144  -0.000002
 145   0.000001
 146   0.000001
 147  -0.000003
 148   0.000002
 149   0.000007
 150   0.000014
 151  -0.000019
 152   0.000005
 153   0.000016
 154  -0.000023
 155  -0.000030
 156   0.000006
 157   0.000004
 158   0.000001
 159  -0.000000
 160   0.000000
 161   0.000001
 162  -0.000008
 163  -0.000005
 164  -0.000002
 165   0.000005
 166   0.000005
 167  -0.000076
 168   0.000044
 169   0.000007
 170   0.000001
 171   0.000001
 172   0.000012
 173   0.000002
 174   0.000007
 175  -0.000001
 176   0.000001
 177  -0.000001
 178   0.000001
 179  -0.000005
 180   0.000001
 181   0.000003
 182  -0.000098
 183  -0.000060
 184  -0.000009
 185  -0.000016
 186   0.000012
 187  -0.000011
 188   0.000070
 189   0.000044
 190   0.000008
 191  -0.000002
 192  -0.000006
 193   0.000004
 194   0.000004
 195  -0.000016
 196   0.000441
 197  -0.000122
 198   0.000040
 199   0.000647
 200  -0.000005
 201   0.000015
 202   0.000006
 203   0.000056
 204  -0.000130
 205  -0.000050
 206  -0.000187
 207   0.000197
 208  -0.000181
 209  -0.000001
 210  -0.000008
 211   0.000010
 212   0.000026
 213  -0.000004
 214   0.000005
 215  -0.000021
 216   0.000018
 217   0.000004
 218  -0.000075
 219  -0.000018
 220  -0.000009
 221   0.000004
 222   0.000001
 223  -0.000006
 224  -0.000016
 225   0.000010
 226   0.000003
 227   0.000011
 228  -0.000011
 229   0.000005
 230   0.000006
 231   0.000028
 232  -0.000363
 233   0.000054
 234  -0.000003
 235   0.000003
 236  -0.000022
 237   0.000089
 238  -0.000089
 239  -0.000102
 240   0.000010
 241   0.000009
 242  -0.000019
 243   0.000013
 244   0.000014
 245  -0.000014
 246   0.000018
 247  -0.000152
 248   0.000081
 249  -0.000024
 250  -0.000003
 251  -0.000005
 252   0.000028
 253  -0.000063
 254   0.000051
 255  -0.000005
 256  -0.000004
 257   0.000009
 258  -0.000011
 259   0.000008
 260   0.000010
 261  -0.000397
 262  -0.000143
 263  -0.000008
 264   0.000364
 265   0.000003
 266   0.000013
 267   0.000028
 268  -0.000018
 269   0.000020
 270  -0.000022
 271  -0.000094
 272  -0.000159
 273  -0.000109
 274   0.000013
 275  -0.000007
 276  -0.000006
 277  -0.000005
 278  -0.000006
 279  -0.000025
 280  -0.000022
 281  -0.000007
 282   0.000029
 283  -0.000000
 284   0.000025
 285   0.000024
 286  -0.000002
 287   0.000005
 288  -0.000014
 289   0.000005
 290  -0.000010
 291  -0.000001
 292  -0.000002
 293   0.000004
 294   0.000020
 295   0.000004
 296  -0.000017
 297  -0.000233
 298  -0.000425
 299   0.000005
 300   0.000015
 301   0.000014
 302  -0.000016
 303  -0.000131
 304  -0.000111
 305  -0.000067
 306  -0.000028
 307   0.000095
 308   0.000013
 309   0.000030
 310   0.000099
 311  -0.000003
 312   0.000064
 313   0.000153
 314  -0.000003
 315   0.000002
 316   0.000007
 317  -0.000056
 318  -0.000033
 319  -0.000022
 320   0.000009
 321  -0.000001
 322  -0.000008
 323   0.000012
 324   0.000004
 325   0.000006
 Ene=   -20.5605
 Spin= Alpha
 Occup=   2.000000
   1   0.000258
   2   0.000036
   3  -0.000007
   4   0.000515
   5  -0.000002
   6   0.000006
   7   0.000003
   8   0.000040
   9  -0.000066
  10  -0.000023
  11  -0.000039
  12  -0.000065
  13  -0.000211
  14  -0.000004
  15  -0.000001
  16   0.000005
  17   0.000004
  18  -0.000007
  19   0.000007
  20   0.000016
  21   0.000008
  22  -0.000025
  23  -0.000062
  24   0.000041
  25  -0.000026
  26   0.000000
  27  -0.000001
  28  -0.000002
  29   0.000010
  30  -0.000003
  31  -0.000001
  32  -0.000010
  33   0.000005
  34   0.000003
  35   0.000005
  36   0.000011
  37  -0.000203
  38  -0.000470
  39  -0.000032
  40   0.000018
  41  -0.000007
  42   0.000133
  43  -0.000100
  44  -0.000074
  45  -0.000003
  46   0.000016
  47  -0.000012
  48   0.000012
  49  -0.000008
  50  -0.000006
  51   0.000017
  52  -0.000356
  53   0.000246
  54   0.000009
  55  -0.000013
  56  -0.000010
  57   0.000115
  58  -0.000137
  59   0.000009
  60   0.000000
  61  -0.000011
  62   0.000011
  63   0.000027
  64   0.000004
  65  -0.000007
  66   0.975815
  67  -0.000632
  68   0.043582
  69   0.001335
  70  -0.000274
  71   0.001008
  72  -0.001211
  73   0.000342
  74  -0.000929
  75   0.000794
  76   0.000440
  77  -0.000416
  78   0.000132
  79  -0.000036
  80  -0.000017
  81   0.000053
  82  -0.000027
  83  -0.000044
  84  -0.000013
  85   0.000140
  86  -0.000082
  87  -0.000058
  88   0.000450
  89   0.000184
  90   0.000092
  91  -0.000023
  92   0.000011
  93   0.000020
  94   0.000084
  95  -0.000031
  96  -0.000024
  97  -0.000053
  98   0.000016
  99  -0.000003
 100  -0.000012
 101   0.000503
 102   0.000526
 103  -0.000196
 104  -0.000081
 105   0.000028
 106   0.000148
 107  -0.000202
 108   0.000064
 109   0.000270
 110   0.000079
 111   0.000102
 112  -0.000181
 113  -0.000032
 114   0.000085
 115   0.000042
 116   0.000417
 117   0.001454
 118  -0.000170
 119   0.000220
 120  -0.000245
 121  -0.000028
 122   0.000436
 123  -0.000618
 124  -0.000044
 125   0.000010
 126  -0.000016
 127   0.000006
 128  -0.000018
 129  -0.000043
 130   0.000041
 131   0.000005
 132  -0.000017
 133   0.000007
 134   0.000033
 135  -0.000002
 136  -0.000003
 137  -0.000003
 138   0.000001
 139   0.000011
 140   0.000019
 141  -0.000068
 142  -0.000038
 143  -0.000003
 144   0.000000
 145  -0.000002
 146   0.000001
 147  -0.000002
 148   0.000001
 149   0.000001
 150  -0.000004
 151   0.000004
 152   0.000000
 153   0.000003
 154  -0.000010
 155  -0.000003
 156   0.000001
 157   0.000001
 158  -0.000000
 159  -0.000000
 160  -0.000001
 161  -0.000000
 162  -0.000001
 163  -0.000001
 164   0.000001
 165   0.000000
 166  -0.000003
 167   0.000045
 168   0.000015
 169   0.000001
 170  -0.000004
 171   0.000000
 172  -0.000019
 173   0.000013
 174   0.000002
 175   0.000002
 176  -0.000002
 177  -0.000000
 178  -0.000001
 179  -0.000003
 180   0.000000
 181  -0.000005
 182  -0.000023
 183   0.000003
 184   0.000006
 185   0.000002
 186  -0.000001
 187  -0.000025
 188   0.000000
 189   0.000032
 190   0.000004
 191   0.000002
 192  -0.000006
 193   0.000004
 194   0.000003
 195  -0.000002
 196   0.000027
 197   0.000033
 198  -0.000006
 199  -0.000026
 200   0.000001
 201  -0.000002
 202  -0.000000
 203  -0.000005
 204   0.000009
 205   0.000002
 206   0.000033
 207  -0.000077
 208  -0.000008
 209   0.000001
 210   0.000000
 211  -0.000002
 212  -0.000003
 213   0.000000
 214  -0.000001
 215  -0.000004
 216  -0.000000
 217   0.000005
 218   0.000009
 219  -0.000002
 220   0.000007
 221  -0.000001
 222  -0.000000
 223   0.000000
 224   0.000002
 225  -0.000000
 226   0.000000
 227  -0.000000
 228   0.000001
 229  -0.000001
 230  -0.000000
 231   0.000001
 232  -0.000025
 233  -0.000001
 234   0.000002
 235  -0.000001
 236  -0.000000
 237  -0.000003
 238   0.000008
 239  -0.000007
 240  -0.000001
 241   0.000001
 242  -0.000000
 243  -0.000000
 244   0.000000
 245   0.000001
 246   0.000001
 247  -0.000017
 248  -0.000033
 249   0.000002
 250   0.000001
 251  -0.000002
 252  -0.000010
 253  -0.000005
 254   0.000013